TITLE = STREAM FUNCTION
VARIABLES = "x", "y", "phi"
Zone T = "BLOCK1", i=101, j=101, F=POINT


0	0	0
0	0.01	0
0	0.02	0
0	0.03	0
0	0.04	0
0	0.05	0
0	0.06	0
0	0.07	0
0	0.08	0
0	0.09	0
0	0.1	0
0	0.11	0
0	0.12	0
0	0.13	0
0	0.14	0
0	0.15	0
0	0.16	0
0	0.17	0
0	0.18	0
0	0.19	0
0	0.2	0
0	0.21	0
0	0.22	0
0	0.23	0
0	0.24	0
0	0.25	0
0	0.26	0
0	0.27	0
0	0.28	0
0	0.29	0
0	0.3	0
0	0.31	0
0	0.32	0
0	0.33	0
0	0.34	0
0	0.35	0
0	0.36	0
0	0.37	0
0	0.38	0
0	0.39	0
0	0.4	0
0	0.41	0
0	0.42	0
0	0.43	0
0	0.44	0
0	0.45	0
0	0.46	0
0	0.47	0
0	0.48	0
0	0.49	0
0	0.5	0
0	0.51	0
0	0.52	0
0	0.53	0
0	0.54	0
0	0.55	0
0	0.56	0
0	0.57	0
0	0.58	0
0	0.59	0
0	0.6	0
0	0.61	0
0	0.62	0
0	0.63	0
0	0.64	0
0	0.65	0
0	0.66	0
0	0.67	0
0	0.68	0
0	0.69	0
0	0.7	0
0	0.71	0
0	0.72	0
0	0.73	0
0	0.74	0
0	0.75	0
0	0.76	0
0	0.77	0
0	0.78	0
0	0.79	0
0	0.8	0
0	0.81	0
0	0.82	0
0	0.83	0
0	0.84	0
0	0.85	0
0	0.86	0
0	0.87	0
0	0.88	0
0	0.89	0
0	0.9	0
0	0.91	0
0	0.92	0
0	0.93	0
0	0.94	0
0	0.95	0
0	0.96	0
0	0.97	0
0	0.98	0
0	0.99	0
0	1	0
0.01	0	0
0.01	0.01	8.63649e-08
0.01	0.02	2.76903e-07
0.01	0.03	4.76813e-07
0.01	0.04	6.22046e-07
0.01	0.05	6.75278e-07
0.01	0.06	6.16058e-07
0.01	0.07	4.33822e-07
0.01	0.08	1.2373e-07
0.01	0.09	-3.15741e-07
0.01	0.1	-8.84175e-07
0.01	0.11	-1.58003e-06
0.01	0.12	-2.40112e-06
0.01	0.13	-3.3449e-06
0.01	0.14	-4.40863e-06
0.01	0.15	-5.58947e-06
0.01	0.16	-6.88457e-06
0.01	0.17	-8.29102e-06
0.01	0.18	-9.80593e-06
0.01	0.19	-1.14264e-05
0.01	0.2	-1.31495e-05
0.01	0.21	-1.49722e-05
0.01	0.22	-1.68914e-05
0.01	0.23	-1.89042e-05
0.01	0.24	-2.10071e-05
0.01	0.25	-2.3197e-05
0.01	0.26	-2.54703e-05
0.01	0.27	-2.78235e-05
0.01	0.28	-3.02527e-05
0.01	0.29	-3.27541e-05
0.01	0.3	-3.53235e-05
0.01	0.31	-3.79567e-05
0.01	0.32	-4.06492e-05
0.01	0.33	-4.33964e-05
0.01	0.34	-4.61935e-05
0.01	0.35	-4.90356e-05
0.01	0.36	-5.19175e-05
0.01	0.37	-5.4834e-05
0.01	0.38	-5.77798e-05
0.01	0.39	-6.07493e-05
0.01	0.4	-6.37371e-05
0.01	0.41	-6.67375e-05
0.01	0.42	-6.97451e-05
0.01	0.43	-7.27542e-05
0.01	0.44	-7.57595e-05
0.01	0.45	-7.87555e-05
0.01	0.46	-8.1737e-05
0.01	0.47	-8.46992e-05
0.01	0.48	-8.76373e-05
0.01	0.49	-9.0547e-05
0.01	0.5	-9.34243e-05
0.01	0.51	-9.62658e-05
0.01	0.52	-9.90686e-05
0.01	0.53	-0.00010183
0.01	0.54	-0.000104549
0.01	0.55	-0.000107225
0.01	0.56	-0.000109858
0.01	0.57	-0.000112449
0.01	0.58	-0.000115001
0.01	0.59	-0.000117517
0.01	0.6	-0.000120002
0.01	0.61	-0.000122464
0.01	0.62	-0.000124911
0.01	0.63	-0.000127354
0.01	0.64	-0.000129806
0.01	0.65	-0.000132283
0.01	0.66	-0.000134805
0.01	0.67	-0.000137394
0.01	0.68	-0.000140076
0.01	0.69	-0.000142884
0.01	0.7	-0.000145853
0.01	0.71	-0.000149029
0.01	0.72	-0.000152462
0.01	0.73	-0.000156213
0.01	0.74	-0.000160352
0.01	0.75	-0.000164963
0.01	0.76	-0.000170147
0.01	0.77	-0.000176019
0.01	0.78	-0.000182721
0.01	0.79	-0.000190421
0.01	0.8	-0.000199319
0.01	0.81	-0.000209661
0.01	0.82	-0.000221741
0.01	0.83	-0.000235924
0.01	0.84	-0.00025266
0.01	0.85	-0.000272512
0.01	0.86	-0.000296194
0.01	0.87	-0.000324629
0.01	0.88	-0.00035903
0.01	0.89	-0.000401029
0.01	0.9	-0.000452886
0.01	0.91	-0.000517832
0.01	0.92	-0.000600653
0.01	0.93	-0.00070872
0.01	0.94	-0.000853759
0.01	0.95	-0.00105469
0.01	0.96	-0.00134072
0.01	0.97	-0.00174669
0.01	0.98	-0.00225652
0.01	0.99	-0.00247726
0.01	1	0
0.02	0	0
0.02	0.01	2.76392e-07
0.02	0.02	7.87527e-07
0.02	0.03	1.27311e-06
0.02	0.04	1.55096e-06
0.02	0.05	1.50346e-06
0.02	0.06	1.05838e-06
0.02	0.07	1.73558e-07
0.02	0.08	-1.17383e-06
0.02	0.09	-2.99429e-06
0.02	0.1	-5.29044e-06
0.02	0.11	-8.05996e-06
0.02	0.12	-1.12974e-05
0.02	0.13	-1.49952e-05
0.02	0.14	-1.91449e-05
0.02	0.15	-2.37369e-05
0.02	0.16	-2.87613e-05
0.02	0.17	-3.4208e-05
0.02	0.18	-4.00663e-05
0.02	0.19	-4.63257e-05
0.02	0.2	-5.29752e-05
0.02	0.21	-6.00037e-05
0.02	0.22	-6.73996e-05
0.02	0.23	-7.51511e-05
0.02	0.24	-8.3246e-05
0.02	0.25	-9.16717e-05
0.02	0.26	-0.000100415
0.02	0.27	-0.000109462
0.02	0.28	-0.000118798
0.02	0.29	-0.000128409
0.02	0.3	-0.000138279
0.02	0.31	-0.000148392
0.02	0.32	-0.000158731
0.02	0.33	-0.000169278
0.02	0.34	-0.000180015
0.02	0.35	-0.000190924
0.02	0.36	-0.000201985
0.02	0.37	-0.000213179
0.02	0.38	-0.000224485
0.02	0.39	-0.000235883
0.02	0.4	-0.000247352
0.02	0.41	-0.000258871
0.02	0.42	-0.00027042
0.02	0.43	-0.000281977
0.02	0.44	-0.000293522
0.02	0.45	-0.000305035
0.02	0.46	-0.000316496
0.02	0.47	-0.000327888
0.02	0.48	-0.000339192
0.02	0.49	-0.000350392
0.02	0.5	-0.000361474
0.02	0.51	-0.000372424
0.02	0.52	-0.000383232
0.02	0.53	-0.00039389
0.02	0.54	-0.000404391
0.02	0.55	-0.000414732
0.02	0.56	-0.000424916
0.02	0.57	-0.000434945
0.02	0.58	-0.000444831
0.02	0.59	-0.000454586
0.02	0.6	-0.00046423
0.02	0.61	-0.000473789
0.02	0.62	-0.000483296
0.02	0.63	-0.000492792
0.02	0.64	-0.000502326
0.02	0.65	-0.000511957
0.02	0.66	-0.000521758
0.02	0.67	-0.000531813
0.02	0.68	-0.00054222
0.02	0.69	-0.000553098
0.02	0.7	-0.000564584
0.02	0.71	-0.000576837
0.02	0.72	-0.000590047
0.02	0.73	-0.000604434
0.02	0.74	-0.000620256
0.02	0.75	-0.000637816
0.02	0.76	-0.000657471
0.02	0.77	-0.000679642
0.02	0.78	-0.000704825
0.02	0.79	-0.000733609
0.02	0.8	-0.000766695
0.02	0.81	-0.000804921
0.02	0.82	-0.000849294
0.02	0.83	-0.000901031
0.02	0.84	-0.000961616
0.02	0.85	-0.00103287
0.02	0.86	-0.00111705
0.02	0.87	-0.001217
0.02	0.88	-0.00133632
0.02	0.89	-0.00147968
0.02	0.9	-0.0016532
0.02	0.91	-0.00186501
0.02	0.92	-0.00212609
0.02	0.93	-0.00245114
0.02	0.94	-0.00285922
0.02	0.95	-0.00337183
0.02	0.96	-0.00400125
0.02	0.97	-0.00470457
0.02	0.98	-0.00522807
0.02	0.99	-0.00462766
0.02	1	0
0.03	0	0
0.03	0.01	4.74457e-07
0.03	0.02	1.2696e-06
0.03	0.03	1.9247e-06
0.03	0.04	2.11534e-06
0.03	0.05	1.62225e-06
0.03	0.06	3.02741e-07
0.03	0.07	-1.93223e-06
0.03	0.08	-5.13495e-06
0.03	0.09	-9.33284e-06
0.03	0.1	-1.45366e-05
0.03	0.11	-2.07459e-05
0.03	0.12	-2.79529e-05
0.03	0.13	-3.61447e-05
0.03	0.14	-4.53053e-05
0.03	0.15	-5.54165e-05
0.03	0.16	-6.64584e-05
0.03	0.17	-7.84103e-05
0.03	0.18	-9.12504e-05
0.03	0.19	-0.000104956
0.03	0.2	-0.000119505
0.03	0.21	-0.000134872
0.03	0.22	-0.000151034
0.03	0.23	-0.000167965
0.03	0.24	-0.000185638
0.03	0.25	-0.000204027
0.03	0.26	-0.000223102
0.03	0.27	-0.000242834
0.03	0.28	-0.000263193
0.03	0.29	-0.000284145
0.03	0.3	-0.000305658
0.03	0.31	-0.000327696
0.03	0.32	-0.000350223
0.03	0.33	-0.000373202
0.03	0.34	-0.000396592
0.03	0.35	-0.000420355
0.03	0.36	-0.000444449
0.03	0.37	-0.000468831
0.03	0.38	-0.000493459
0.03	0.39	-0.000518287
0.03	0.4	-0.000543272
0.03	0.41	-0.000568369
0.03	0.42	-0.000593533
0.03	0.43	-0.000618719
0.03	0.44	-0.000643885
0.03	0.45	-0.000668986
0.03	0.46	-0.000693981
0.03	0.47	-0.000718831
0.03	0.48	-0.000743498
0.03	0.49	-0.000767947
0.03	0.5	-0.000792147
0.03	0.51	-0.00081607
0.03	0.52	-0.000839692
0.03	0.53	-0.000862996
0.03	0.54	-0.000885969
0.03	0.55	-0.000908604
0.03	0.56	-0.000930904
0.03	0.57	-0.000952879
0.03	0.58	-0.000974547
0.03	0.59	-0.000995938
0.03	0.6	-0.00101709
0.03	0.61	-0.00103807
0.03	0.62	-0.00105893
0.03	0.63	-0.00107977
0.03	0.64	-0.00110069
0.03	0.65	-0.00112181
0.03	0.66	-0.00114329
0.03	0.67	-0.0011653
0.03	0.68	-0.00118805
0.03	0.69	-0.0012118
0.03	0.7	-0.00123681
0.03	0.71	-0.00126344
0.03	0.72	-0.00129206
0.03	0.73	-0.00132315
0.03	0.74	-0.00135722
0.03	0.75	-0.00139489
0.03	0.76	-0.00143691
0.03	0.77	-0.0014841
0.03	0.78	-0.00153747
0.03	0.79	-0.0015982
0.03	0.8	-0.00166765
0.03	0.81	-0.00174747
0.03	0.82	-0.00183957
0.03	0.83	-0.00194628
0.03	0.84	-0.00207035
0.03	0.85	-0.00221508
0.03	0.86	-0.0023845
0.03	0.87	-0.00258346
0.03	0.88	-0.00281793
0.03	0.89	-0.0030952
0.03	0.9	-0.00342424
0.03	0.91	-0.00381587
0.03	0.92	-0.00428275
0.03	0.93	-0.00483833
0.03	0.94	-0.00549299
0.03	0.95	-0.00624268
0.03	0.96	-0.00703821
0.03	0.97	-0.00770721
0.03	0.98	-0.00776769
0.03	0.99	-0.00603226
0.03	1	0
0.04	0	0
0.04	0.01	6.16437e-07
0.04	0.02	1.5418e-06
0.04	0.03	2.11024e-06
0.04	0.04	1.84825e-06
0.04	0.05	4.26786e-07
0.04	0.06	-2.37648e-06
0.04	0.07	-6.70648e-06
0.04	0.08	-1.2653e-05
0.04	0.09	-2.0267e-05
0.04	0.1	-2.95721e-05
0.04	0.11	-4.0573e-05
0.04	0.12	-5.32615e-05
0.04	0.13	-6.76201e-05
0.04	0.14	-8.36249e-05
0.04	0.15	-0.000101248
0.04	0.16	-0.000120458
0.04	0.17	-0.00014122
0.04	0.18	-0.0001635
0.04	0.19	-0.00018726
0.04	0.2	-0.000212461
0.04	0.21	-0.000239064
0.04	0.22	-0.000267027
0.04	0.23	-0.000296305
0.04	0.24	-0.000326856
0.04	0.25	-0.000358631
0.04	0.26	-0.000391583
0.04	0.27	-0.00042566
0.04	0.28	-0.00046081
0.04	0.29	-0.000496978
0.04	0.3	-0.000534106
0.04	0.31	-0.000572135
0.04	0.32	-0.000611003
0.04	0.33	-0.000650645
0.04	0.34	-0.000690995
0.04	0.35	-0.000731985
0.04	0.36	-0.000773543
0.04	0.37	-0.000815599
0.04	0.38	-0.000858078
0.04	0.39	-0.000900906
0.04	0.4	-0.000944006
0.04	0.41	-0.000987304
0.04	0.42	-0.00103072
0.04	0.43	-0.00107419
0.04	0.44	-0.00111762
0.04	0.45	-0.00116095
0.04	0.46	-0.00120411
0.04	0.47	-0.00124703
0.04	0.48	-0.00128964
0.04	0.49	-0.00133189
0.04	0.5	-0.00137373
0.04	0.51	-0.00141509
0.04	0.52	-0.00145596
0.04	0.53	-0.00149628
0.04	0.54	-0.00153605
0.04	0.55	-0.00157525
0.04	0.56	-0.00161388
0.04	0.57	-0.00165195
0.04	0.58	-0.00168951
0.04	0.59	-0.0017266
0.04	0.6	-0.00176328
0.04	0.61	-0.00179965
0.04	0.62	-0.00183582
0.04	0.63	-0.00187193
0.04	0.64	-0.00190817
0.04	0.65	-0.00194473
0.04	0.66	-0.00198187
0.04	0.67	-0.00201988
0.04	0.68	-0.0020591
0.04	0.69	-0.00209995
0.04	0.7	-0.00214289
0.04	0.71	-0.00218847
0.04	0.72	-0.00223733
0.04	0.73	-0.0022902
0.04	0.74	-0.00234795
0.04	0.75	-0.00241157
0.04	0.76	-0.00248223
0.04	0.77	-0.00256127
0.04	0.78	-0.00265024
0.04	0.79	-0.00275099
0.04	0.8	-0.00286563
0.04	0.81	-0.00299664
0.04	0.82	-0.00314691
0.04	0.83	-0.00331985
0.04	0.84	-0.00351941
0.04	0.85	-0.00375025
0.04	0.86	-0.00401782
0.04	0.87	-0.00432847
0.04	0.88	-0.00468956
0.04	0.89	-0.00510952
0.04	0.9	-0.00559759
0.04	0.91	-0.00616331
0.04	0.92	-0.00681475
0.04	0.93	-0.00755451
0.04	0.94	-0.00837064
0.04	0.95	-0.00921662
0.04	0.96	-0.00996884
0.04	0.97	-0.01034
0.04	0.98	-0.00971755
0.04	0.99	-0.00691587
0.04	1	0
0.05	0	0
0.05	0.01	6.66085e-07
0.05	0.02	1.49121e-06
0.05	0.03	1.62158e-06
0.05	0.04	4.40911e-07
0.05	0.05	-2.4885e-06
0.05	0.06	-7.47055e-06
0.05	0.07	-1.47099e-05
0.05	0.08	-2.43381e-05
0.05	0.09	-3.6434e-05
0.05	0.1	-5.1038e-05
0.05	0.11	-6.81627e-05
0.05	0.12	-8.78015e-05
0.05	0.13	-0.000109933
0.05	0.14	-0.000134527
0.05	0.15	-0.000161544
0.05	0.16	-0.00019094
0.05	0.17	-0.000222667
0.05	0.18	-0.000256674
0.05	0.19	-0.000292907
0.05	0.2	-0.000331307
0.05	0.21	-0.000371816
0.05	0.22	-0.000414372
0.05	0.23	-0.000458911
0.05	0.24	-0.000505365
0.05	0.25	-0.000553664
0.05	0.26	-0.000603735
0.05	0.27	-0.000655503
0.05	0.28	-0.000708888
0.05	0.29	-0.000763807
0.05	0.3	-0.000820174
0.05	0.31	-0.0008779
0.05	0.32	-0.000936891
0.05	0.33	-0.000997051
0.05	0.34	-0.00105828
0.05	0.35	-0.00112048
0.05	0.36	-0.00118354
0.05	0.37	-0.00124735
0.05	0.38	-0.0013118
0.05	0.39	-0.00137679
0.05	0.4	-0.0014422
0.05	0.41	-0.0015079
0.05	0.42	-0.0015738
0.05	0.43	-0.00163978
0.05	0.44	-0.00170572
0.05	0.45	-0.00177152
0.05	0.46	-0.00183707
0.05	0.47	-0.00190227
0.05	0.48	-0.00196702
0.05	0.49	-0.00203123
0.05	0.5	-0.00209483
0.05	0.51	-0.00215773
0.05	0.52	-0.00221989
0.05	0.53	-0.00228125
0.05	0.54	-0.00234177
0.05	0.55	-0.00240144
0.05	0.56	-0.00246027
0.05	0.57	-0.00251826
0.05	0.58	-0.00257546
0.05	0.59	-0.00263195
0.05	0.6	-0.00268783
0.05	0.61	-0.00274321
0.05	0.62	-0.00279828
0.05	0.63	-0.00285323
0.05	0.64	-0.00290831
0.05	0.65	-0.00296384
0.05	0.66	-0.00302018
0.05	0.67	-0.00307773
0.05	0.68	-0.00313701
0.05	0.69	-0.0031986
0.05	0.7	-0.00326317
0.05	0.71	-0.0033315
0.05	0.72	-0.00340451
0.05	0.73	-0.00348323
0.05	0.74	-0.00356889
0.05	0.75	-0.00366288
0.05	0.76	-0.00376681
0.05	0.77	-0.00388253
0.05	0.78	-0.0040122
0.05	0.79	-0.00415826
0.05	0.8	-0.00432357
0.05	0.81	-0.00451138
0.05	0.82	-0.00472545
0.05	0.83	-0.00497007
0.05	0.84	-0.00525013
0.05	0.85	-0.00557122
0.05	0.86	-0.00593957
0.05	0.87	-0.00636209
0.05	0.88	-0.0068462
0.05	0.89	-0.00739942
0.05	0.9	-0.00802851
0.05	0.91	-0.00873774
0.05	0.92	-0.0095253
0.05	0.93	-0.0103764
0.05	0.94	-0.0112503
0.05	0.95	-0.0120547
0.05	0.96	-0.0126013
0.05	0.97	-0.0125272
0.05	0.98	-0.0111784
0.05	0.99	-0.00748627
0.05	1	0
0.06	0	0
0.06	0.01	6.05236e-07
0.06	0.02	1.05444e-06
0.06	0.03	3.35349e-07
0.06	0.04	-2.29531e-06
0.06	0.05	-7.37566e-06
0.06	0.06	-1.52876e-05
0.06	0.07	-2.62948e-05
0.06	0.08	-4.05719e-05
0.06	0.09	-5.82275e-05
0.06	0.1	-7.93207e-05
0.06	0.11	-0.000103874
0.06	0.12	-0.000131885
0.06	0.13	-0.000163329
0.06	0.14	-0.000198169
0.06	0.15	-0.000236355
0.06	0.16	-0.00027783
0.06	0.17	-0.000322532
0.06	0.18	-0.000370391
0.06	0.19	-0.000421333
0.06	0.2	-0.000475282
0.06	0.21	-0.000532157
0.06	0.22	-0.000591872
0.06	0.23	-0.000654338
0.06	0.24	-0.000719464
0.06	0.25	-0.000787153
0.06	0.26	-0.000857304
0.06	0.27	-0.000929811
0.06	0.28	-0.00100457
0.06	0.29	-0.00108145
0.06	0.3	-0.00116035
0.06	0.31	-0.00124114
0.06	0.32	-0.00132369
0.06	0.33	-0.00140787
0.06	0.34	-0.00149354
0.06	0.35	-0.00158056
0.06	0.36	-0.00166878
0.06	0.37	-0.00175805
0.06	0.38	-0.00184822
0.06	0.39	-0.00193915
0.06	0.4	-0.00203066
0.06	0.41	-0.0021226
0.06	0.42	-0.00221482
0.06	0.43	-0.00230715
0.06	0.44	-0.00239946
0.06	0.45	-0.00249157
0.06	0.46	-0.00258335
0.06	0.47	-0.00267466
0.06	0.48	-0.00276536
0.06	0.49	-0.00285533
0.06	0.5	-0.00294445
0.06	0.51	-0.00303263
0.06	0.52	-0.00311977
0.06	0.53	-0.00320581
0.06	0.54	-0.0032907
0.06	0.55	-0.00337441
0.06	0.56	-0.00345694
0.06	0.57	-0.00353831
0.06	0.58	-0.00361858
0.06	0.59	-0.00369784
0.06	0.6	-0.00377621
0.06	0.61	-0.00385387
0.06	0.62	-0.00393104
0.06	0.63	-0.00400799
0.06	0.64	-0.00408506
0.06	0.65	-0.00416264
0.06	0.66	-0.00424122
0.06	0.67	-0.00432136
0.06	0.68	-0.00440371
0.06	0.69	-0.00448904
0.06	0.7	-0.00457824
0.06	0.71	-0.00467233
0.06	0.72	-0.00477249
0.06	0.73	-0.00488009
0.06	0.74	-0.00499667
0.06	0.75	-0.00512404
0.06	0.76	-0.00526423
0.06	0.77	-0.00541959
0.06	0.78	-0.00559279
0.06	0.79	-0.00578685
0.06	0.8	-0.00600523
0.06	0.81	-0.00625182
0.06	0.82	-0.00653102
0.06	0.83	-0.00684772
0.06	0.84	-0.00720736
0.06	0.85	-0.00761583
0.06	0.86	-0.00807944
0.06	0.87	-0.00860457
0.06	0.88	-0.00919727
0.06	0.89	-0.00986233
0.06	0.9	-0.0106016
0.06	0.91	-0.0114113
0.06	0.92	-0.0122764
0.06	0.93	-0.0131621
0.06	0.94	-0.0139983
0.06	0.95	-0.0146532
0.06	0.96	-0.0148916
0.06	0.97	-0.0143135
0.06	0.98	-0.0122802
0.06	0.99	-0.00787202
0.06	1	0
0.07	0	0
0.07	0.01	4.26692e-07
0.07	0.02	2.01765e-07
0.07	0.03	-1.81077e-06
0.07	0.04	-6.45958e-06
0.07	0.05	-1.43699e-05
0.07	0.06	-2.59939e-05
0.07	0.07	-4.16498e-05
0.07	0.08	-6.15538e-05
0.07	0.09	-8.58437e-05
0.07	0.1	-0.000114598
0.07	0.11	-0.000147851
0.07	0.12	-0.000185603
0.07	0.13	-0.000227829
0.07	0.14	-0.000274485
0.07	0.15	-0.000325511
0.07	0.16	-0.000380837
0.07	0.17	-0.000440383
0.07	0.18	-0.000504063
0.07	0.19	-0.000571783
0.07	0.2	-0.000643444
0.07	0.21	-0.000718941
0.07	0.22	-0.000798164
0.07	0.23	-0.000880998
0.07	0.24	-0.000967322
0.07	0.25	-0.00105701
0.07	0.26	-0.00114993
0.07	0.27	-0.00124595
0.07	0.28	-0.00134492
0.07	0.29	-0.00144669
0.07	0.3	-0.00155111
0.07	0.31	-0.00165802
0.07	0.32	-0.00176724
0.07	0.33	-0.0018786
0.07	0.34	-0.00199193
0.07	0.35	-0.00210703
0.07	0.36	-0.00222372
0.07	0.37	-0.00234181
0.07	0.38	-0.00246108
0.07	0.39	-0.00258135
0.07	0.4	-0.0027024
0.07	0.41	-0.00282404
0.07	0.42	-0.00294605
0.07	0.43	-0.00306823
0.07	0.44	-0.00319038
0.07	0.45	-0.0033123
0.07	0.46	-0.0034338
0.07	0.47	-0.00355469
0.07	0.48	-0.00367479
0.07	0.49	-0.00379395
0.07	0.5	-0.00391201
0.07	0.51	-0.00402884
0.07	0.52	-0.00414431
0.07	0.53	-0.00425835
0.07	0.54	-0.00437088
0.07	0.55	-0.00448185
0.07	0.56	-0.00459126
0.07	0.57	-0.00469913
0.07	0.58	-0.00480553
0.07	0.59	-0.00491056
0.07	0.6	-0.00501439
0.07	0.61	-0.00511722
0.07	0.62	-0.00521932
0.07	0.63	-0.00532105
0.07	0.64	-0.0054228
0.07	0.65	-0.00552509
0.07	0.66	-0.0056285
0.07	0.67	-0.00573373
0.07	0.68	-0.00584159
0.07	0.69	-0.00595304
0.07	0.7	-0.00606917
0.07	0.71	-0.00619122
0.07	0.72	-0.00632066
0.07	0.73	-0.00645912
0.07	0.74	-0.0066085
0.07	0.75	-0.00677093
0.07	0.76	-0.00694886
0.07	0.77	-0.00714505
0.07	0.78	-0.00736259
0.07	0.79	-0.00760498
0.07	0.8	-0.00787613
0.07	0.81	-0.00818036
0.07	0.82	-0.00852243
0.07	0.83	-0.00890752
0.07	0.84	-0.00934109
0.07	0.85	-0.00982882
0.07	0.86	-0.0103763
0.07	0.87	-0.0109883
0.07	0.88	-0.0116685
0.07	0.89	-0.0124173
0.07	0.9	-0.0132303
0.07	0.91	-0.0140936
0.07	0.92	-0.0149783
0.07	0.93	-0.0158299
0.07	0.94	-0.0165523
0.07	0.95	-0.0169834
0.07	0.96	-0.0168598
0.07	0.97	-0.0157726
0.07	0.98	-0.013127
0.07	0.99	-0.00814626
0.07	1	0
0.08	0	0
0.08	0.01	1.29865e-07
0.08	0.02	-1.07407e-06
0.08	0.03	-4.83607e-06
0.08	0.04	-1.20857e-05
0.08	0.05	-2.3519e-05
0.08	0.06	-3.9647e-05
0.08	0.07	-6.0836e-05
0.08	0.08	-8.73392e-05
0.08	0.09	-0.000119322
0.08	0.1	-0.00015688
0.08	0.11	-0.00020006
0.08	0.12	-0.000248866
0.08	0.13	-0.000303271
0.08	0.14	-0.000363224
0.08	0.15	-0.000428658
0.08	0.16	-0.000499487
0.08	0.17	-0.000575615
0.08	0.18	-0.000656938
0.08	0.19	-0.00074334
0.08	0.2	-0.000834698
0.08	0.21	-0.000930884
0.08	0.22	-0.00103176
0.08	0.23	-0.00113718
0.08	0.24	-0.00124701
0.08	0.25	-0.00136107
0.08	0.26	-0.0014792
0.08	0.27	-0.00160124
0.08	0.28	-0.001727
0.08	0.29	-0.00185629
0.08	0.3	-0.00198892
0.08	0.31	-0.0021247
0.08	0.32	-0.00226339
0.08	0.33	-0.0024048
0.08	0.34	-0.00254868
0.08	0.35	-0.00269482
0.08	0.36	-0.00284297
0.08	0.37	-0.00299288
0.08	0.38	-0.00314431
0.08	0.39	-0.003297
0.08	0.4	-0.00345069
0.08	0.41	-0.00360514
0.08	0.42	-0.00376007
0.08	0.43	-0.00391524
0.08	0.44	-0.00407038
0.08	0.45	-0.00422525
0.08	0.46	-0.0043796
0.08	0.47	-0.0045332
0.08	0.48	-0.00468583
0.08	0.49	-0.00483728
0.08	0.5	-0.00498735
0.08	0.51	-0.00513588
0.08	0.52	-0.00528271
0.08	0.53	-0.00542772
0.08	0.54	-0.00557082
0.08	0.55	-0.00571195
0.08	0.56	-0.00585108
0.08	0.57	-0.00598824
0.08	0.58	-0.0061235
0.08	0.59	-0.00625698
0.08	0.6	-0.00638887
0.08	0.61	-0.0065194
0.08	0.62	-0.0066489
0.08	0.63	-0.00677778
0.08	0.64	-0.00690651
0.08	0.65	-0.00703571
0.08	0.66	-0.00716605
0.08	0.67	-0.00729838
0.08	0.68	-0.00743365
0.08	0.69	-0.00757298
0.08	0.7	-0.00771765
0.08	0.71	-0.00786914
0.08	0.72	-0.00802912
0.08	0.73	-0.0081995
0.08	0.74	-0.00838247
0.08	0.75	-0.00858045
0.08	0.76	-0.00879622
0.08	0.77	-0.00903286
0.08	0.78	-0.00929381
0.08	0.79	-0.00958288
0.08	0.8	-0.00990425
0.08	0.81	-0.0102624
0.08	0.82	-0.0106623
0.08	0.83	-0.0111089
0.08	0.84	-0.0116074
0.08	0.85	-0.0121626
0.08	0.86	-0.0127786
0.08	0.87	-0.0134582
0.08	0.88	-0.0142013
0.08	0.89	-0.0150034
0.08	0.9	-0.0158527
0.08	0.91	-0.0167251
0.08	0.92	-0.0175779
0.08	0.93	-0.0183391
0.08	0.94	-0.018892
0.08	0.95	-0.0190537
0.08	0.96	-0.0185477
0.08	0.97	-0.0169742
0.08	0.98	-0.0137929
0.08	0.99	-0.00835035
0.08	1	0
0.09	0	0
0.09	0.01	-2.81844e-07
0.09	0.02	-2.76561e-06
0.09	0.03	-8.73006e-06
0.09	0.04	-1.91607e-05
0.09	0.05	-3.48057e-05
0.09	0.06	-5.62227e-05
0.09	0.07	-8.38166e-05
0.09	0.08	-0.000117872
0.09	0.09	-0.000158576
0.09	0.1	-0.000206043
0.09	0.11	-0.000260327
0.09	0.12	-0.000321436
0.09	0.13	-0.000389342
0.09	0.14	-0.000463987
0.09	0.15	-0.000545293
0.09	0.16	-0.000633162
0.09	0.17	-0.000727481
0.09	0.18	-0.000828126
0.09	0.19	-0.000934958
0.09	0.2	-0.00104783
0.09	0.21	-0.00116659
0.09	0.22	-0.00129108
0.09	0.23	-0.00142111
0.09	0.24	-0.00155651
0.09	0.25	-0.00169709
0.09	0.26	-0.00184264
0.09	0.27	-0.00199296
0.09	0.28	-0.00214783
0.09	0.29	-0.00230702
0.09	0.3	-0.0024703
0.09	0.31	-0.00263741
0.09	0.32	-0.0028081
0.09	0.33	-0.00298212
0.09	0.34	-0.00315917
0.09	0.35	-0.00333898
0.09	0.36	-0.00352126
0.09	0.37	-0.00370571
0.09	0.38	-0.00389202
0.09	0.39	-0.0040799
0.09	0.4	-0.00426902
0.09	0.41	-0.00445907
0.09	0.42	-0.00464974
0.09	0.43	-0.00484071
0.09	0.44	-0.00503167
0.09	0.45	-0.00522231
0.09	0.46	-0.00541234
0.09	0.47	-0.00560147
0.09	0.48	-0.00578942
0.09	0.49	-0.00597594
0.09	0.5	-0.00616079
0.09	0.51	-0.00634375
0.09	0.52	-0.00652463
0.09	0.53	-0.00670328
0.09	0.54	-0.00687958
0.09	0.55	-0.00705344
0.09	0.56	-0.00722483
0.09	0.57	-0.00739375
0.09	0.58	-0.00756028
0.09	0.59	-0.00772454
0.09	0.6	-0.00788675
0.09	0.61	-0.00804716
0.09	0.62	-0.00820616
0.09	0.63	-0.00836418
0.09	0.64	-0.0085218
0.09	0.65	-0.00867968
0.09	0.66	-0.00883862
0.09	0.67	-0.00899956
0.09	0.68	-0.0091636
0.09	0.69	-0.00933199
0.09	0.7	-0.0095062
0.09	0.71	-0.00968788
0.09	0.72	-0.0098789
0.09	0.73	-0.0100814
0.09	0.74	-0.0102978
0.09	0.75	-0.0105308
0.09	0.76	-0.0107833
0.09	0.77	-0.0110587
0.09	0.78	-0.0113607
0.09	0.79	-0.0116932
0.09	0.8	-0.0120604
0.09	0.81	-0.012467
0.09	0.82	-0.0129175
0.09	0.83	-0.0134166
0.09	0.84	-0.0139687
0.09	0.85	-0.0145772
0.09	0.86	-0.0152446
0.09	0.87	-0.0159706
0.09	0.88	-0.0167512
0.09	0.89	-0.0175764
0.09	0.9	-0.0184268
0.09	0.91	-0.0192686
0.09	0.92	-0.0200466
0.09	0.93	-0.0206744
0.09	0.94	-0.0210201
0.09	0.95	-0.0208884
0.09	0.96	-0.0200003
0.09	0.97	-0.0179752
0.09	0.98	-0.0143284
0.09	0.99	-0.00850822
0.09	1	0
0.1	0	0
0.1	0.01	-8.0263e-07
0.1	0.02	-4.85584e-06
0.1	0.03	-1.3462e-05
0.1	0.04	-2.76382e-05
0.1	0.05	-4.81664e-05
0.1	0.06	-7.56362e-05
0.1	0.07	-0.000110481
0.1	0.08	-0.000153009
0.1	0.09	-0.000203426
0.1	0.1	-0.000261858
0.1	0.11	-0.000328366
0.1	0.12	-0.000402961
0.1	0.13	-0.000485611
0.1	0.14	-0.000576252
0.1	0.15	-0.000674795
0.1	0.16	-0.000781128
0.1	0.17	-0.000895121
0.1	0.18	-0.00101663
0.1	0.19	-0.00114549
0.1	0.2	-0.00128154
0.1	0.21	-0.0014246
0.1	0.22	-0.00157446
0.1	0.23	-0.00173093
0.1	0.24	-0.00189379
0.1	0.25	-0.00206281
0.1	0.26	-0.00223777
0.1	0.27	-0.00241841
0.1	0.28	-0.00260447
0.1	0.29	-0.00279569
0.1	0.3	-0.00299178
0.1	0.31	-0.00319246
0.1	0.32	-0.0033974
0.1	0.33	-0.00360632
0.1	0.34	-0.00381887
0.1	0.35	-0.00403472
0.1	0.36	-0.00425352
0.1	0.37	-0.00447493
0.1	0.38	-0.00469859
0.1	0.39	-0.00492411
0.1	0.4	-0.00515115
0.1	0.41	-0.00537931
0.1	0.42	-0.00560822
0.1	0.43	-0.00583752
0.1	0.44	-0.00606682
0.1	0.45	-0.00629576
0.1	0.46	-0.00652399
0.1	0.47	-0.00675115
0.1	0.48	-0.00697693
0.1	0.49	-0.00720101
0.1	0.5	-0.00742309
0.1	0.51	-0.00764292
0.1	0.52	-0.00786026
0.1	0.53	-0.00807492
0.1	0.54	-0.00828674
0.1	0.55	-0.00849561
0.1	0.56	-0.00870147
0.1	0.57	-0.00890431
0.1	0.58	-0.00910421
0.1	0.59	-0.00930128
0.1	0.6	-0.00949574
0.1	0.61	-0.00968789
0.1	0.62	-0.00987812
0.1	0.63	-0.0100669
0.1	0.64	-0.0102549
0.1	0.65	-0.0104429
0.1	0.66	-0.0106316
0.1	0.67	-0.0108223
0.1	0.68	-0.0110159
0.1	0.69	-0.0112141
0.1	0.7	-0.0114182
0.1	0.71	-0.0116302
0.1	0.72	-0.0118521
0.1	0.73	-0.0120862
0.1	0.74	-0.012335
0.1	0.75	-0.0126015
0.1	0.76	-0.0128888
0.1	0.77	-0.0132002
0.1	0.78	-0.0135396
0.1	0.79	-0.013911
0.1	0.8	-0.0143185
0.1	0.81	-0.0147664
0.1	0.82	-0.015259
0.1	0.83	-0.0158002
0.1	0.84	-0.0163932
0.1	0.85	-0.01704
0.1	0.86	-0.0177407
0.1	0.87	-0.0184919
0.1	0.88	-0.0192854
0.1	0.89	-0.0201056
0.1	0.9	-0.0209258
0.1	0.91	-0.0217034
0.1	0.92	-0.0223727
0.1	0.93	-0.022836
0.1	0.94	-0.0229508
0.1	0.95	-0.0225163
0.1	0.96	-0.0212582
0.1	0.97	-0.0188197
0.1	0.98	-0.0147682
0.1	0.99	-0.0086343
0.1	1	0
0.11	0	0
0.11	0.01	-1.42529e-06
0.11	0.02	-7.32168e-06
0.11	0.03	-1.89878e-05
0.11	0.04	-3.74494e-05
0.11	0.05	-6.35039e-05
0.11	0.06	-9.77587e-05
0.11	0.07	-0.000140665
0.11	0.08	-0.000192545
0.11	0.09	-0.000253618
0.11	0.1	-0.000324017
0.11	0.11	-0.000403807
0.11	0.12	-0.000492998
0.11	0.13	-0.000591554
0.11	0.14	-0.000699405
0.11	0.15	-0.000816448
0.11	0.16	-0.000942558
0.11	0.17	-0.00107759
0.11	0.18	-0.00122137
0.11	0.19	-0.00137372
0.11	0.2	-0.00153445
0.11	0.21	-0.00170335
0.11	0.22	-0.00188019
0.11	0.23	-0.00206475
0.11	0.24	-0.00225676
0.11	0.25	-0.00245597
0.11	0.26	-0.00266211
0.11	0.27	-0.00287489
0.11	0.28	-0.00309401
0.11	0.29	-0.00331916
0.11	0.3	-0.00355
0.11	0.31	-0.00378621
0.11	0.32	-0.00402743
0.11	0.33	-0.00427329
0.11	0.34	-0.00452341
0.11	0.35	-0.0047774
0.11	0.36	-0.00503487
0.11	0.37	-0.0052954
0.11	0.38	-0.00555856
0.11	0.39	-0.00582394
0.11	0.4	-0.0060911
0.11	0.41	-0.0063596
0.11	0.42	-0.006629
0.11	0.43	-0.00689886
0.11	0.44	-0.00716875
0.11	0.45	-0.00743824
0.11	0.46	-0.00770691
0.11	0.47	-0.00797435
0.11	0.48	-0.00824018
0.11	0.49	-0.00850401
0.11	0.5	-0.00876552
0.11	0.51	-0.00902437
0.11	0.52	-0.0092803
0.11	0.53	-0.00953305
0.11	0.54	-0.00978243
0.11	0.55	-0.0100283
0.11	0.56	-0.0102706
0.11	0.57	-0.0105092
0.11	0.58	-0.0107443
0.11	0.59	-0.0109759
0.11	0.6	-0.0112042
0.11	0.61	-0.0114296
0.11	0.62	-0.0116525
0.11	0.63	-0.0118734
0.11	0.64	-0.012093
0.11	0.65	-0.012312
0.11	0.66	-0.0125314
0.11	0.67	-0.0127523
0.11	0.68	-0.0129761
0.11	0.69	-0.0132041
0.11	0.7	-0.0134381
0.11	0.71	-0.01368
0.11	0.72	-0.013932
0.11	0.73	-0.0141965
0.11	0.74	-0.0144761
0.11	0.75	-0.0147739
0.11	0.76	-0.015093
0.11	0.77	-0.0154369
0.11	0.78	-0.0158094
0.11	0.79	-0.0162142
0.11	0.8	-0.0166554
0.11	0.81	-0.0171368
0.11	0.82	-0.017662
0.11	0.83	-0.0182341
0.11	0.84	-0.0188549
0.11	0.85	-0.0195247
0.11	0.86	-0.020241
0.11	0.87	-0.0209971
0.11	0.88	-0.0217807
0.11	0.89	-0.0225707
0.11	0.9	-0.0233339
0.11	0.91	-0.0240199
0.11	0.92	-0.0245546
0.11	0.93	-0.0248318
0.11	0.94	-0.0247029
0.11	0.95	-0.023966
0.11	0.96	-0.0223559
0.11	0.97	-0.0195414
0.11	0.98	-0.0151362
0.11	0.99	-0.00873765
0.11	1	0
0.12	0	0
0.12	0.01	-2.14184e-06
0.12	0.02	-1.01364e-05
0.12	0.03	-2.52545e-05
0.12	0.04	-4.85101e-05
0.12	0.05	-8.06985e-05
0.12	0.06	-0.000122431
0.12	0.07	-0.000174164
0.12	0.08	-0.000236228
0.12	0.09	-0.000308845
0.12	0.1	-0.000392152
0.12	0.11	-0.000486213
0.12	0.12	-0.000591036
0.12	0.13	-0.000706579
0.12	0.14	-0.000832761
0.12	0.15	-0.000969467
0.12	0.16	-0.00111656
0.12	0.17	-0.00127386
0.12	0.18	-0.0014412
0.12	0.19	-0.00161837
0.12	0.2	-0.00180515
0.12	0.21	-0.00200129
0.12	0.22	-0.00220655
0.12	0.23	-0.00242066
0.12	0.24	-0.00264334
0.12	0.25	-0.00287429
0.12	0.26	-0.0031132
0.12	0.27	-0.00335974
0.12	0.28	-0.00361357
0.12	0.29	-0.00387433
0.12	0.3	-0.00414166
0.12	0.31	-0.00441516
0.12	0.32	-0.00469443
0.12	0.33	-0.00497904
0.12	0.34	-0.00526858
0.12	0.35	-0.00556258
0.12	0.36	-0.0058606
0.12	0.37	-0.00616215
0.12	0.38	-0.00646676
0.12	0.39	-0.00677393
0.12	0.4	-0.00708318
0.12	0.41	-0.00739398
0.12	0.42	-0.00770585
0.12	0.43	-0.00801827
0.12	0.44	-0.00833074
0.12	0.45	-0.00864277
0.12	0.46	-0.00895387
0.12	0.47	-0.00926356
0.12	0.48	-0.00957139
0.12	0.49	-0.00987694
0.12	0.5	-0.0101798
0.12	0.51	-0.0104796
0.12	0.52	-0.0107759
0.12	0.53	-0.0110686
0.12	0.54	-0.0113573
0.12	0.55	-0.0116419
0.12	0.56	-0.0119223
0.12	0.57	-0.0121983
0.12	0.58	-0.01247
0.12	0.59	-0.0127376
0.12	0.6	-0.0130011
0.12	0.61	-0.0132611
0.12	0.62	-0.0135177
0.12	0.63	-0.0137717
0.12	0.64	-0.0140236
0.12	0.65	-0.0142743
0.12	0.66	-0.0145249
0.12	0.67	-0.0147764
0.12	0.68	-0.0150302
0.12	0.69	-0.0152879
0.12	0.7	-0.0155513
0.12	0.71	-0.0158222
0.12	0.72	-0.016103
0.12	0.73	-0.0163962
0.12	0.74	-0.0167044
0.12	0.75	-0.0170307
0.12	0.76	-0.0173782
0.12	0.77	-0.0177504
0.12	0.78	-0.0181509
0.12	0.79	-0.0185832
0.12	0.8	-0.0190509
0.12	0.81	-0.0195574
0.12	0.82	-0.0201056
0.12	0.83	-0.0206972
0.12	0.84	-0.0213328
0.12	0.85	-0.0220106
0.12	0.86	-0.0227255
0.12	0.87	-0.0234679
0.12	0.88	-0.024221
0.12	0.89	-0.0249591
0.12	0.9	-0.025643
0.12	0.91	-0.0262158
0.12	0.92	-0.0265968
0.12	0.93	-0.026674
0.12	0.94	-0.0262959
0.12	0.95	-0.0252629
0.12	0.96	-0.0233216
0.12	0.97	-0.0201654
0.12	0.98	-0.0154491
0.12	0.99	-0.00882421
0.12	1	0
0.13	0	0
0.13	0.01	-2.944e-06
0.13	0.02	-1.32715e-05
0.13	0.03	-3.22046e-05
0.13	0.04	-6.0727e-05
0.13	0.05	-9.96159e-05
0.13	0.06	-0.000149473
0.13	0.07	-0.000210749
0.13	0.08	-0.000283772
0.13	0.09	-0.000368762
0.13	0.1	-0.000465852
0.13	0.11	-0.000575104
0.13	0.12	-0.000696517
0.13	0.13	-0.00083004
0.13	0.14	-0.000975583
0.13	0.15	-0.00113302
0.13	0.16	-0.00130218
0.13	0.17	-0.0014829
0.13	0.18	-0.00167496
0.13	0.19	-0.00187813
0.13	0.2	-0.00209217
0.13	0.21	-0.00231681
0.13	0.22	-0.00255177
0.13	0.23	-0.00279676
0.13	0.24	-0.00305145
0.13	0.25	-0.00331551
0.13	0.26	-0.00358859
0.13	0.27	-0.00387033
0.13	0.28	-0.00416034
0.13	0.29	-0.00445822
0.13	0.3	-0.00476354
0.13	0.31	-0.00507588
0.13	0.32	-0.00539477
0.13	0.33	-0.00571974
0.13	0.34	-0.00605031
0.13	0.35	-0.00638596
0.13	0.36	-0.00672619
0.13	0.37	-0.00707045
0.13	0.38	-0.0074182
0.13	0.39	-0.00776889
0.13	0.4	-0.00812195
0.13	0.41	-0.0084768
0.13	0.42	-0.00883288
0.13	0.43	-0.00918961
0.13	0.44	-0.00954641
0.13	0.45	-0.00990273
0.13	0.46	-0.010258
0.13	0.47	-0.0106117
0.13	0.48	-0.0109632
0.13	0.49	-0.0113122
0.13	0.5	-0.0116581
0.13	0.51	-0.0120004
0.13	0.52	-0.0123388
0.13	0.53	-0.012673
0.13	0.54	-0.0130026
0.13	0.55	-0.0133274
0.13	0.56	-0.0136472
0.13	0.57	-0.013962
0.13	0.58	-0.0142717
0.13	0.59	-0.0145764
0.13	0.6	-0.0148762
0.13	0.61	-0.0151716
0.13	0.62	-0.0154629
0.13	0.63	-0.0157506
0.13	0.64	-0.0160354