TITLE = u_vectors
VARIABLES = "x", "y", "U"
Zone T = "BLOCK1", i=101, j=101, F=POINT


0	0	0
0	0.01	0
0	0.02	0
0	0.03	0
0	0.04	0
0	0.05	0
0	0.06	0
0	0.07	0
0	0.08	0
0	0.09	0
0	0.1	0
0	0.11	0
0	0.12	0
0	0.13	0
0	0.14	0
0	0.15	0
0	0.16	0
0	0.17	0
0	0.18	0
0	0.19	0
0	0.2	0
0	0.21	0
0	0.22	0
0	0.23	0
0	0.24	0
0	0.25	0
0	0.26	0
0	0.27	0
0	0.28	0
0	0.29	0
0	0.3	0
0	0.31	0
0	0.32	0
0	0.33	0
0	0.34	0
0	0.35	0
0	0.36	0
0	0.37	0
0	0.38	0
0	0.39	0
0	0.4	0
0	0.41	0
0	0.42	0
0	0.43	0
0	0.44	0
0	0.45	0
0	0.46	0
0	0.47	0
0	0.48	0
0	0.49	0
0	0.5	0
0	0.51	0
0	0.52	0
0	0.53	0
0	0.54	0
0	0.55	0
0	0.56	0
0	0.57	0
0	0.58	0
0	0.59	0
0	0.6	0
0	0.61	0
0	0.62	0
0	0.63	0
0	0.64	0
0	0.65	0
0	0.66	0
0	0.67	0
0	0.68	0
0	0.69	0
0	0.7	0
0	0.71	0
0	0.72	0
0	0.73	0
0	0.74	0
0	0.75	0
0	0.76	0
0	0.77	0
0	0.78	0
0	0.79	0
0	0.8	0
0	0.81	0
0	0.82	0
0	0.83	0
0	0.84	0
0	0.85	0
0	0.86	0
0	0.87	0
0	0.88	0
0	0.89	0
0	0.9	0
0	0.91	0
0	0.92	0
0	0.93	0
0	0.94	0
0	0.95	0
0	0.96	0
0	0.97	0
0	0.98	0
0	0.99	0
0	1	1
0.01	0	0
0.01	0.01	1.38452e-05
0.01	0.02	1.95224e-05
0.01	0.03	1.72571e-05
0.01	0.04	9.92328e-06
0.01	0.05	-2.99404e-07
0.01	0.06	-1.20728e-05
0.01	0.07	-2.46164e-05
0.01	0.08	-3.74782e-05
0.01	0.09	-5.03953e-05
0.01	0.1	-6.32145e-05
0.01	0.11	-7.58474e-05
0.01	0.12	-8.82434e-05
0.01	0.13	-0.000100375
0.01	0.14	-0.000112229
0.01	0.15	-0.000123797
0.01	0.16	-0.000135077
0.01	0.17	-0.000146068
0.01	0.18	-0.000156769
0.01	0.19	-0.000167177
0.01	0.2	-0.000177288
0.01	0.21	-0.000187099
0.01	0.22	-0.0001966
0.01	0.23	-0.000205785
0.01	0.24	-0.000214642
0.01	0.25	-0.000223159
0.01	0.26	-0.000231323
0.01	0.27	-0.000239119
0.01	0.28	-0.000246529
0.01	0.29	-0.000253539
0.01	0.3	-0.00026013
0.01	0.31	-0.000266285
0.01	0.32	-0.000271987
0.01	0.33	-0.000277217
0.01	0.34	-0.00028196
0.01	0.35	-0.000286199
0.01	0.36	-0.000289921
0.01	0.37	-0.000293112
0.01	0.38	-0.000295763
0.01	0.39	-0.000297864
0.01	0.4	-0.000299411
0.01	0.41	-0.000300401
0.01	0.42	-0.000300835
0.01	0.43	-0.000300719
0.01	0.44	-0.000300062
0.01	0.45	-0.000298879
0.01	0.46	-0.000297188
0.01	0.47	-0.000295014
0.01	0.48	-0.000292389
0.01	0.49	-0.00028935
0.01	0.5	-0.00028594
0.01	0.51	-0.000282212
0.01	0.52	-0.000278225
0.01	0.53	-0.000274047
0.01	0.54	-0.000269755
0.01	0.55	-0.000265437
0.01	0.56	-0.000261191
0.01	0.57	-0.000257129
0.01	0.58	-0.000253374
0.01	0.59	-0.000250066
0.01	0.6	-0.000247363
0.01	0.61	-0.00024544
0.01	0.62	-0.000244496
0.01	0.63	-0.000244757
0.01	0.64	-0.000246479
0.01	0.65	-0.000249953
0.01	0.66	-0.000255514
0.01	0.67	-0.000263545
0.01	0.68	-0.000274492
0.01	0.69	-0.000288871
0.01	0.7	-0.000307286
0.01	0.71	-0.000330443
0.01	0.72	-0.000359179
0.01	0.73	-0.000394482
0.01	0.74	-0.000437529
0.01	0.75	-0.00048973
0.01	0.76	-0.00055278
0.01	0.77	-0.000628732
0.01	0.78	-0.000720086
0.01	0.79	-0.000829909
0.01	0.8	-0.000961995
0.01	0.81	-0.00112109
0.01	0.82	-0.00131318
0.01	0.83	-0.00154594
0.01	0.84	-0.00182937
0.01	0.85	-0.00217671
0.01	0.86	-0.00260589
0.01	0.87	-0.00314181
0.01	0.88	-0.00381999
0.01	0.89	-0.00469281
0.01	0.9	-0.00584013
0.01	0.91	-0.00738834
0.01	0.92	-0.0095444
0.01	0.93	-0.0126553
0.01	0.94	-0.0172986
0.01	0.95	-0.024348
0.01	0.96	-0.0345999
0.01	0.97	-0.0457901
0.01	0.98	-0.0365284
0.01	0.99	0.112826
0.01	1	1
0.02	0	0
0.02	0.01	3.93763e-05
0.02	0.02	4.98357e-05
0.02	0.03	3.81719e-05
0.02	0.04	1.15175e-05
0.02	0.05	-2.46293e-05
0.02	0.06	-6.64949e-05
0.02	0.07	-0.000111611
0.02	0.08	-0.000158392
0.02	0.09	-0.00020583
0.02	0.1	-0.000253284
0.02	0.11	-0.000300347
0.02	0.12	-0.000346764
0.02	0.13	-0.000392376
0.02	0.14	-0.000437082
0.02	0.15	-0.000480822
0.02	0.16	-0.000523554
0.02	0.17	-0.00056525
0.02	0.18	-0.000605888
0.02	0.19	-0.000645445
0.02	0.2	-0.000683897
0.02	0.21	-0.000721217
0.02	0.22	-0.000757371
0.02	0.23	-0.000792322
0.02	0.24	-0.000826028
0.02	0.25	-0.000858441
0.02	0.26	-0.000889507
0.02	0.27	-0.000919171
0.02	0.28	-0.000947373
0.02	0.29	-0.00097405
0.02	0.3	-0.000999138
0.02	0.31	-0.00102257
0.02	0.32	-0.00104429
0.02	0.33	-0.00106422
0.02	0.34	-0.00108231
0.02	0.35	-0.00109851
0.02	0.36	-0.00111275
0.02	0.37	-0.00112499
0.02	0.38	-0.0011352
0.02	0.39	-0.00114335
0.02	0.4	-0.00114941
0.02	0.41	-0.00115339
0.02	0.42	-0.00115527
0.02	0.43	-0.0011551
0.02	0.44	-0.0011529
0.02	0.45	-0.00114873
0.02	0.46	-0.00114266
0.02	0.47	-0.00113478
0.02	0.48	-0.00112522
0.02	0.49	-0.0011141
0.02	0.5	-0.00110161
0.02	0.51	-0.00108792
0.02	0.52	-0.00107327
0.02	0.53	-0.00105791
0.02	0.54	-0.00104212
0.02	0.55	-0.00102625
0.02	0.56	-0.00101065
0.02	0.57	-0.000995753
0.02	0.58	-0.000982012
0.02	0.59	-0.000969955
0.02	0.6	-0.000960169
0.02	0.61	-0.000953315
0.02	0.62	-0.000950137
0.02	0.63	-0.000951474
0.02	0.64	-0.000958279
0.02	0.65	-0.000971634
0.02	0.66	-0.000992774
0.02	0.67	-0.00102311
0.02	0.68	-0.00106428
0.02	0.69	-0.00111816
0.02	0.7	-0.00118694
0.02	0.71	-0.00127317
0.02	0.72	-0.00137983
0.02	0.73	-0.00151042
0.02	0.74	-0.0016691
0.02	0.75	-0.00186078
0.02	0.76	-0.0020913
0.02	0.77	-0.00236768
0.02	0.78	-0.00269834
0.02	0.79	-0.0030935
0.02	0.8	-0.00356561
0.02	0.81	-0.00412996
0.02	0.82	-0.00480553
0.02	0.83	-0.00561612
0.02	0.84	-0.0065919
0.02	0.85	-0.00777175
0.02	0.86	-0.00920644
0.02	0.87	-0.0109635
0.02	0.88	-0.0131341
0.02	0.89	-0.0158437
0.02	0.9	-0.0192665
0.02	0.91	-0.0236447
0.02	0.92	-0.0293065
0.02	0.93	-0.0366564
0.02	0.94	-0.0460344
0.02	0.95	-0.0571015
0.02	0.96	-0.0666369
0.02	0.97	-0.0613414
0.02	0.98	0.00384532
0.02	0.99	0.261404
0.02	1	1
0.03	0	0
0.03	0.01	6.348e-05
0.03	0.02	7.25122e-05
0.03	0.03	4.22871e-05
0.03	0.04	-1.51224e-05
0.03	0.05	-9.063e-05
0.03	0.06	-0.000177724
0.03	0.07	-0.000271884
0.03	0.08	-0.00037003
0.03	0.09	-0.000470084
0.03	0.1	-0.000570655
0.03	0.11	-0.000670812
0.03	0.12	-0.000769938
0.03	0.13	-0.000867622
0.03	0.14	-0.00096359
0.03	0.15	-0.00105766
0.03	0.16	-0.00114969
0.03	0.17	-0.0012396
0.03	0.18	-0.0013273
0.03	0.19	-0.00141272
0.03	0.2	-0.0014958
0.03	0.21	-0.00157646
0.03	0.22	-0.00165463
0.03	0.23	-0.0017302
0.03	0.24	-0.00180309
0.03	0.25	-0.00187319
0.03	0.26	-0.00194038
0.03	0.27	-0.00200454
0.03	0.28	-0.00206554
0.03	0.29	-0.00212326
0.03	0.3	-0.00217754
0.03	0.31	-0.00222826
0.03	0.32	-0.00227528
0.03	0.33	-0.00231847
0.03	0.34	-0.0023577
0.03	0.35	-0.00239284
0.03	0.36	-0.0024238
0.03	0.37	-0.00245047
0.03	0.38	-0.00247278
0.03	0.39	-0.00249067
0.03	0.4	-0.00250409
0.03	0.41	-0.00251304
0.03	0.42	-0.00251752
0.03	0.43	-0.00251759
0.03	0.44	-0.00251332
0.03	0.45	-0.00250483
0.03	0.46	-0.00249227
0.03	0.47	-0.00247585
0.03	0.48	-0.00245581
0.03	0.49	-0.00243246
0.03	0.5	-0.00240614
0.03	0.51	-0.00237726
0.03	0.52	-0.00234631
0.03	0.53	-0.00231382
0.03	0.54	-0.00228041
0.03	0.55	-0.00224678
0.03	0.56	-0.00221372
0.03	0.57	-0.00218211
0.03	0.58	-0.00215295
0.03	0.59	-0.00212733
0.03	0.6	-0.00210652
0.03	0.61	-0.0020919
0.03	0.62	-0.00208506
0.03	0.63	-0.00208775
0.03	0.64	-0.002102
0.03	0.65	-0.00213005
0.03	0.66	-0.00217451
0.03	0.67	-0.0022383
0.03	0.68	-0.00232482
0.03	0.69	-0.00243794
0.03	0.7	-0.00258215
0.03	0.71	-0.00276263
0.03	0.72	-0.00298543
0.03	0.73	-0.0032576
0.03	0.74	-0.00358738
0.03	0.75	-0.00398447
0.03	0.76	-0.0044603
0.03	0.77	-0.0050284
0.03	0.78	-0.00570485
0.03	0.79	-0.00650884
0.03	0.8	-0.00746337
0.03	0.81	-0.00859619
0.03	0.82	-0.00994094
0.03	0.83	-0.0115387
0.03	0.84	-0.01344
0.03	0.85	-0.0157073
0.03	0.86	-0.0184187
0.03	0.87	-0.0216715
0.03	0.88	-0.0255873
0.03	0.89	-0.0303158
0.03	0.9	-0.0360331
0.03	0.91	-0.0429253
0.03	0.92	-0.051123
0.03	0.93	-0.0605125
0.03	0.94	-0.0702178
0.03	0.95	-0.0772608
0.03	0.96	-0.0732263
0.03	0.97	-0.0364741
0.03	0.98	0.0837474
0.03	0.99	0.388385
0.03	1	1
0.04	0	0
0.04	0.01	7.70899e-05
0.04	0.02	7.469e-05
0.04	0.03	1.53228e-05
0.04	0.04	-8.41726e-05
0.04	0.05	-0.000211236
0.04	0.06	-0.000356664
0.04	0.07	-0.000513828
0.04	0.08	-0.000678026
0.04	0.09	-0.000845953
0.04	0.1	-0.0010153
0.04	0.11	-0.00118447
0.04	0.12	-0.00135235
0.04	0.13	-0.00151817
0.04	0.14	-0.00168139
0.04	0.15	-0.00184163
0.04	0.16	-0.00199861
0.04	0.17	-0.00215213
0.04	0.18	-0.002302
0.04	0.19	-0.00244807
0.04	0.2	-0.0025902
0.04	0.21	-0.00272825
0.04	0.22	-0.00286206
0.04	0.23	-0.00299146
0.04	0.24	-0.00311629
0.04	0.25	-0.00323635
0.04	0.26	-0.00335145
0.04	0.27	-0.00346137
0.04	0.28	-0.00356589
0.04	0.29	-0.0036648
0.04	0.3	-0.00375785
0.04	0.31	-0.00384483
0.04	0.32	-0.00392549
0.04	0.33	-0.00399961
0.04	0.34	-0.00406699
0.04	0.35	-0.00412742
0.04	0.36	-0.00418072
0.04	0.37	-0.00422674
0.04	0.38	-0.00426533
0.04	0.39	-0.0042964
0.04	0.4	-0.00431989
0.04	0.41	-0.00433578
0.04	0.42	-0.00434408
0.04	0.43	-0.00434487
0.04	0.44	-0.0043383
0.04	0.45	-0.00432454
0.04	0.46	-0.00430388
0.04	0.47	-0.00427663
0.04	0.48	-0.00424322
0.04	0.49	-0.00420415
0.04	0.5	-0.00416002
0.04	0.51	-0.0041115
0.04	0.52	-0.0040594
0.04	0.53	-0.00400464
0.04	0.54	-0.00394825
0.04	0.55	-0.0038914
0.04	0.56	-0.00383541
0.04	0.57	-0.00378176
0.04	0.58	-0.00373212
0.04	0.59	-0.00368834
0.04	0.6	-0.0036525
0.04	0.61	-0.00362695
0.04	0.62	-0.00361429
0.04	0.63	-0.00361747
0.04	0.64	-0.00363982
0.04	0.65	-0.00368506
0.04	0.66	-0.00375746
0.04	0.67	-0.00386183
0.04	0.68	-0.00400367
0.04	0.69	-0.00418928
0.04	0.7	-0.00442587
0.04	0.71	-0.00472175
0.04	0.72	-0.0050865
0.04	0.73	-0.0055312
0.04	0.74	-0.00606874
0.04	0.75	-0.00671405
0.04	0.76	-0.00748459
0.04	0.77	-0.00840071
0.04	0.78	-0.00948625
0.04	0.79	-0.0107692
0.04	0.8	-0.0122823
0.04	0.81	-0.0140642
0.04	0.82	-0.0161605
0.04	0.83	-0.0186248
0.04	0.84	-0.0215202
0.04	0.85	-0.0249204
0.04	0.86	-0.0289108
0.04	0.87	-0.0335874
0.04	0.88	-0.0390526
0.04	0.89	-0.0454015
0.04	0.9	-0.0526898
0.04	0.91	-0.0608575
0.04	0.92	-0.0695596
0.04	0.93	-0.0777946
0.04	0.94	-0.0831058
0.04	0.95	-0.0799101
0.04	0.96	-0.0561696
0.04	0.97	0.0125646
0.04	0.98	0.171207
0.04	0.99	0.485877
0.04	1	1
0.05	0	0
0.05	0.01	7.45607e-05
0.05	0.02	4.77749e-05
0.05	0.03	-5.25151e-05
0.05	0.04	-0.000205504
0.05	0.05	-0.000395573
0.05	0.06	-0.000611068
0.05	0.07	-0.000843379
0.05	0.08	-0.00108621
0.05	0.09	-0.00133499
0.05	0.1	-0.00158643
0.05	0.11	-0.00183818
0.05	0.12	-0.00208853
0.05	0.13	-0.00233627
0.05	0.14	-0.00258053
0.05	0.15	-0.00282066
0.05	0.16	-0.00305618
0.05	0.17	-0.00328672
0.05	0.18	-0.00351196
0.05	0.19	-0.00373163
0.05	0.2	-0.00394549
0.05	0.21	-0.00415327
0.05	0.22	-0.00435474
0.05	0.23	-0.00454962
0.05	0.24	-0.00473765
0.05	0.25	-0.00491853
0.05	0.26	-0.00509196
0.05	0.27	-0.00525762
0.05	0.28	-0.00541518
0.05	0.29	-0.0055643
0.05	0.3	-0.00570464
0.05	0.31	-0.00583585
0.05	0.32	-0.00595759
0.05	0.33	-0.00606954
0.05	0.34	-0.00617137
0.05	0.35	-0.00626279
0.05	0.36	-0.00634354
0.05	0.37	-0.00641337
0.05	0.38	-0.00647209
0.05	0.39	-0.00651956
0.05	0.4	-0.00655567
0.05	0.41	-0.0065804
0.05	0.42	-0.00659378
0.05	0.43	-0.00659592
0.05	0.44	-0.00658702
0.05	0.45	-0.00656735
0.05	0.46	-0.00653732
0.05	0.47	-0.00649741
0.05	0.48	-0.00644822
0.05	0.49	-0.00639051
0.05	0.5	-0.00632514
0.05	0.51	-0.00625313
0.05	0.52	-0.00617565
0.05	0.53	-0.00609404
0.05	0.54	-0.00600983
0.05	0.55	-0.00592474
0.05	0.56	-0.00584072
0.05	0.57	-0.00575994
0.05	0.58	-0.00568483
0.05	0.59	-0.00561812
0.05	0.6	-0.00556286
0.05	0.61	-0.00552246
0.05	0.62	-0.00550072
0.05	0.63	-0.00550193
0.05	0.64	-0.0055309
0.05	0.65	-0.00559301
0.05	0.66	-0.00569438
0.05	0.67	-0.0058419
0.05	0.68	-0.00604339
0.05	0.69	-0.00630773
0.05	0.7	-0.00664506
0.05	0.71	-0.00706695
0.05	0.72	-0.00758664
0.05	0.73	-0.00821929
0.05	0.74	-0.00898234
0.05	0.75	-0.00989579
0.05	0.76	-0.0109827
0.05	0.77	-0.0122694
0.05	0.78	-0.0137865
0.05	0.79	-0.0155687
0.05	0.8	-0.017656
0.05	0.81	-0.020094
0.05	0.82	-0.0229341
0.05	0.83	-0.0262342
0.05	0.84	-0.0300576
0.05	0.85	-0.0344717
0.05	0.86	-0.0395437
0.05	0.87	-0.0453316
0.05	0.88	-0.0518662
0.05	0.89	-0.0591157
0.05	0.9	-0.0669164
0.05	0.91	-0.0748395
0.05	0.92	-0.0819352
0.05	0.93	-0.0862477
0.05	0.94	-0.0839132
0.05	0.95	-0.0675514
0.05	0.96	-0.0236224
0.05	0.97	0.0711453
0.05	0.98	0.252045
0.05	0.99	0.558919
0.05	1	1
0.06	0	0
0.06	0.01	5.27218e-05
0.06	0.02	-1.34943e-05
0.06	0.03	-0.000167487
0.06	0.04	-0.00038555
0.06	0.05	-0.000649615
0.06	0.06	-0.000945957
0.06	0.07	-0.00126422
0.06	0.08	-0.00159663
0.06	0.09	-0.00193744
0.06	0.1	-0.00228235
0.06	0.11	-0.00262822
0.06	0.12	-0.00297273
0.06	0.13	-0.00331418
0.06	0.14	-0.00365128
0.06	0.15	-0.00398309
0.06	0.16	-0.00430886
0.06	0.17	-0.00462801
0.06	0.18	-0.00494006
0.06	0.19	-0.00524458
0.06	0.2	-0.00554117
0.06	0.21	-0.00582947
0.06	0.22	-0.00610908
0.06	0.23	-0.00637964
0.06	0.24	-0.00664074
0.06	0.25	-0.00689197
0.06	0.26	-0.0071329
0.06	0.27	-0.00736309
0.06	0.28	-0.00758206
0.06	0.29	-0.00778937
0.06	0.3	-0.00798452
0.06	0.31	-0.00816705
0.06	0.32	-0.00833649
0.06	0.33	-0.00849238
0.06	0.34	-0.0086343
0.06	0.35	-0.00876184
0.06	0.36	-0.00887462
0.06	0.37	-0.00897233
0.06	0.38	-0.0090547
0.06	0.39	-0.00912152
0.06	0.4	-0.00917266
0.06	0.41	-0.00920807
0.06	0.42	-0.00922779
0.06	0.43	-0.00923197
0.06	0.44	-0.00922086
0.06	0.45	-0.00919486
0.06	0.46	-0.00915448
0.06	0.47	-0.00910039
0.06	0.48	-0.0090334
0.06	0.49	-0.00895452
0.06	0.5	-0.00886491
0.06	0.51	-0.00876597
0.06	0.52	-0.00865926
0.06	0.53	-0.00854661
0.06	0.54	-0.00843008
0.06	0.55	-0.00831199
0.06	0.56	-0.00819496
0.06	0.57	-0.00808193
0.06	0.58	-0.00797619
0.06	0.59	-0.00788139
0.06	0.6	-0.00780163
0.06	0.61	-0.00774147
0.06	0.62	-0.00770601
0.06	0.63	-0.00770096
0.06	0.64	-0.00773267
0.06	0.65	-0.0078083
0.06	0.66	-0.00793588
0.06	0.67	-0.00812441
0.06	0.68	-0.00838409
0.06	0.69	-0.00872639
0.06	0.7	-0.00916432
0.06	0.71	-0.00971258
0.06	0.72	-0.0103879
0.06	0.73	-0.0112091
0.06	0.74	-0.0121977
0.06	0.75	-0.0133781
0.06	0.76	-0.0147777
0.06	0.77	-0.0164276
0.06	0.78	-0.0183627
0.06	0.79	-0.020622
0.06	0.8	-0.0232485
0.06	0.81	-0.0262895
0.06	0.82	-0.029795
0.06	0.83	-0.033817
0.06	0.84	-0.0384058
0.06	0.85	-0.043604
0.06	0.86	-0.0494366
0.06	0.87	-0.0558917
0.06	0.88	-0.0628881
0.06	0.89	-0.0702179
0.06	0.9	-0.0774464
0.06	0.91	-0.0837361
0.06	0.92	-0.0875429
0.06	0.93	-0.0860982
0.06	0.94	-0.0745542
0.06	0.95	-0.0446645
0.06	0.96	0.0169858
0.06	0.97	0.130572
0.06	0.98	0.322073
0.06	0.99	0.614008
0.06	1	1
0.07	0	0
0.07	0.01	1.00882e-05
0.07	0.02	-0.000111873
0.07	0.03	-0.000333067
0.07	0.04	-0.000627958
0.07	0.05	-0.000976714
0.07	0.06	-0.00136399
0.07	0.07	-0.001778
0.07	0.08	-0.00220969
0.07	0.09	-0.00265222
0.07	0.1	-0.00310038
0.07	0.11	-0.00355026
0.07	0.12	-0.00399889
0.07	0.13	-0.00444406
0.07	0.14	-0.00488407
0.07	0.15	-0.0053176
0.07	0.16	-0.00574363
0.07	0.17	-0.00616133
0.07	0.18	-0.00657
0.07	0.19	-0.00696904
0.07	0.2	-0.00735788
0.07	0.21	-0.00773599
0.07	0.22	-0.00810284
0.07	0.23	-0.00845792
0.07	0.24	-0.00880068
0.07	0.25	-0.00913055
0.07	0.26	-0.00944698
0.07	0.27	-0.00974936
0.07	0.28	-0.0100371
0.07	0.29	-0.0103096
0.07	0.3	-0.0105662
0.07	0.31	-0.0108063
0.07	0.32	-0.0110292
0.07	0.33	-0.0112345
0.07	0.34	-0.0114215
0.07	0.35	-0.0115898
0.07	0.36	-0.0117387
0.07	0.37	-0.011868
0.07	0.38	-0.0119772
0.07	0.39	-0.0120661
0.07	0.4	-0.0121345
0.07	0.41	-0.0121823
0.07	0.42	-0.0122096
0.07	0.43	-0.0122165
0.07	0.44	-0.0122034
0.07	0.45	-0.0121708
0.07	0.46	-0.0121193
0.07	0.47	-0.0120497
0.07	0.48	-0.0119632
0.07	0.49	-0.0118609
0.07	0.5	-0.0117443
0.07	0.51	-0.0116153
0.07	0.52	-0.0114758
0.07	0.53	-0.0113281
0.07	0.54	-0.0111749
0.07	0.55	-0.0110191
0.07	0.56	-0.0108641
0.07	0.57	-0.0107135
0.07	0.58	-0.0105716
0.07	0.59	-0.0104429
0.07	0.6	-0.0103328
0.07	0.61	-0.0102468
0.07	0.62	-0.0101915
0.07	0.63	-0.0101739
0.07	0.64	-0.010202
0.07	0.65	-0.0102848
0.07	0.66	-0.010432
0.07	0.67	-0.0106549
0.07	0.68	-0.0109658
0.07	0.69	-0.0113786
0.07	0.7	-0.011909
0.07	0.71	-0.0125745
0.07	0.72	-0.0133949
0.07	0.73	-0.014392
0.07	0.74	-0.0155907
0.07	0.75	-0.0170184
0.07	0.76	-0.0187056
0.07	0.77	-0.0206861
0.07	0.78	-0.0229966
0.07	0.79	-0.0256769
0.07	0.8	-0.0287689
0.07	0.81	-0.0323154
0.07	0.82	-0.0363579
0.07	0.83	-0.040933
0.07	0.84	-0.0460654
0.07	0.85	-0.0517581
0.07	0.86	-0.0579746
0.07	0.87	-0.0646113
0.07	0.88	-0.0714514
0.07	0.89	-0.0780904
0.07	0.9	-0.0838144
0.07	0.91	-0.0874028
0.07	0.92	-0.0868143
0.07	0.93	-0.0786979
0.07	0.94	-0.0576733
0.07	0.95	-0.0153744
0.07	0.96	0.0605396
0.07	0.97	0.186639
0.07	0.98	0.381316
0.07	0.99	0.656351
0.07	1	1
0.08	0	0
0.08	0.01	-5.37037e-05
0.08	0.02	-0.000248297
0.08	0.03	-0.000550584
0.08	0.04	-0.000934145
0.08	0.05	-0.00137806
0.08	0.06	-0.00186585
0.08	0.07	-0.00238461
0.08	0.08	-0.00292428
0.08	0.09	-0.00347706
0.08	0.1	-0.00403693
0.08	0.11	-0.00459928
0.08	0.12	-0.00516052
0.08	0.13	-0.00571792
0.08	0.14	-0.00626935
0.08	0.15	-0.00681311
0.08	0.16	-0.00734789
0.08	0.17	-0.00787257
0.08	0.18	-0.00838622
0.08	0.19	-0.00888802
0.08	0.2	-0.00937723
0.08	0.21	-0.00985313
0.08	0.22	-0.010315
0.08	0.23	-0.0107622
0.08	0.24	-0.011194
0.08	0.25	-0.0116097
0.08	0.26	-0.0120086
0.08	0.27	-0.0123898
0.08	0.28	-0.0127527
0.08	0.29	-0.0130964
0.08	0.3	-0.0134203
0.08	0.31	-0.0137234
0.08	0.32	-0.0140051
0.08	0.33	-0.0142646
0.08	0.34	-0.0145011
0.08	0.35	-0.0147141
0.08	0.36	-0.0149029
0.08	0.37	-0.015067
0.08	0.38	-0.0152059
0.08	0.39	-0.0153194
0.08	0.4	-0.015407
0.08	0.41	-0.0154689
0.08	0.42	-0.0155049
0.08	0.43	-0.0155153
0.08	0.44	-0.0155005
0.08	0.45	-0.0154611
0.08	0.46	-0.0153977
0.08	0.47	-0.0153116
0.08	0.48	-0.0152038
0.08	0.49	-0.015076
0.08	0.5	-0.01493
0.08	0.51	-0.0147679
0.08	0.52	-0.0145921
0.08	0.53	-0.0144056
0.08	0.54	-0.0142113
0.08	0.55	-0.0140131
0.08	0.56	-0.0138148
0.08	0.57	-0.0136212
0.08	0.58	-0.0134371
0.08	0.59	-0.0132682
0.08	0.6	-0.0131208
0.08	0.61	-0.0130018
0.08	0.62	-0.0129189
0.08	0.63	-0.0128806
0.08	0.64	-0.0128964
0.08	0.65	-0.0129769
0.08	0.66	-0.0131338
0.08	0.67	-0.01338
0.08	0.68	-0.01373
0.08	0.69	-0.0142
0.08	0.7	-0.0148077
0.08	0.71	-0.0155731
0.08	0.72	-0.0165183
0.08	0.73	-0.0176674
0.08	0.74	-0.0190475
0.08	0.75	-0.0206879
0.08	0.76	-0.0226205
0.08	0.77	-0.0248795
0.08	0.78	-0.0275008
0.08	0.79	-0.0305216
0.08	0.8	-0.0339782
0.08	0.81	-0.0379039
0.08	0.82	-0.042325
0.08	0.83	-0.0472545
0.08	0.84	-0.0526824
0.08	0.85	-0.0585606
0.08	0.86	-0.0647799
0.08	0.87	-0.0711338
0.08	0.88	-0.0772626
0.08	0.89	-0.082568
0.08	0.9	-0.0860809
0.08	0.91	-0.086261
0.08	0.92	-0.0807009
0.08	0.93	-0.065704
0.08	0.94	-0.0357314
0.08	0.95	0.0172127
0.08	0.96	0.103978
0.08	0.97	0.237741
0.08	0.98	0.43119
0.08	0.99	0.689645
0.08	1	1
0.09	0	0
0.09	0.01	-0.000138281
0.09	0.02	-0.000422411
0.09	0.03	-0.000819754
0.09	0.04	-0.00130378
0.09	0.05	-0.0018531
0.09	0.06	-0.00245054
0.09	0.07	-0.00308244
0.09	0.08	-0.00373797
0.09	0.09	-0.00440858
0.09	0.1	-0.00508756
0.09	0.11	-0.00576964
0.09	0.12	-0.00645072
0.09	0.13	-0.00712756
0.09	0.14	-0.00779758
0.09	0.15	-0.00845875
0.09	0.16	-0.00910941
0.09	0.17	-0.00974817
0.09	0.18	-0.0103738
0.09	0.19	-0.0109854
0.09	0.2	-0.0115818
0.09	0.21	-0.0121623
0.09	0.22	-0.0127258
0.09	0.23	-0.0132716
0.09	0.24	-0.0137988
0.09	0.25	-0.0143064
0.09	0.26	-0.0147936
0.09	0.27	-0.0152595
0.09	0.28	-0.0157031
0.09	0.29	-0.0161234
0.09	0.3	-0.0165195
0.09	0.31	-0.0168904
0.09	0.32	-0.0172353
0.09	0.33	-0.0175531
0.09	0.34	-0.0178432
0.09	0.35	-0.0181045
0.09	0.36	-0.0183365
0.09	0.37	-0.0185383
0.09	0.38	-0.0187096
0.09	0.39	-0.0188498
0.09	0.4	-0.0189586
0.09	0.41	-0.0190359
0.09	0.42	-0.0190818
0.09	0.43	-0.0190963
0.09	0.44	-0.0190801
0.09	0.45	-0.0190336
0.09	0.46	-0.0189579
0.09	0.47	-0.018854
0.09	0.48	-0.0187236
0.09	0.49	-0.0185683
0.09	0.5	-0.0183904
0.09	0.51	-0.0181923
0.09	0.52	-0.0179769
0.09	0.53	-0.0177475
0.09	0.54	-0.0175078
0.09	0.55	-0.0172622
0.09	0.56	-0.0170154
0.09	0.57	-0.0167726
0.09	0.58	-0.0165398
0.09	0.59	-0.0163235
0.09	0.6	-0.0161311
0.09	0.61	-0.0159706
0.09	0.62	-0.015851
0.09	0.63	-0.015782
0.09	0.64	-0.0157746
0.09	0.65	-0.0158409
0.09	0.66	-0.0159941
0.09	0.67	-0.016249
0.09	0.68	-0.0166217
0.09	0.69	-0.0171302
0.09	0.7	-0.0177941
0.09	0.71	-0.0186351
0.09	0.72	-0.0196768
0.09	0.73	-0.0209451
0.09	0.74	-0.0224678
0.09	0.75	-0.0242749
0.09	0.76	-0.0263978
0.09	0.77	-0.0288691
0.09	0.78	-0.0317217
0.09	0.79	-0.0349865
0.09	0.8	-0.0386908
0.09	0.81	-0.042854
0.09	0.82	-0.0474817
0.09	0.83	-0.0525578
0.09	0.84	-0.0580311
0.09	0.85	-0.0637965
0.09	0.86	-0.069667
0.09	0.87	-0.0753315
0.09	0.88	-0.0802935
0.09	0.89	-0.0837792
0.09	0.9	-0.0846058
0.09	0.91	-0.0809915
0.09	0.92	-0.0702944
0.09	0.93	-0.0486732
0.09	0.94	-0.0106966
0.09	0.95	0.0509903
0.09	0.96	0.145661
0.09	0.97	0.283593
0.09	0.98	0.473347
0.09	0.99	0.716422
0.09	1	1
0.1	0	0
0.1	0.01	-0.000242792
0.1	0.02	-0.000632969
0.1	0.03	-0.00113912
0.1	0.04	-0.00173522
0.1	0.05	-0.0023999
0.1	0.06	-0.00311574
0.1	0.07	-0.00386864
0.1	0.08	-0.00464724
0.1	0.09	-0.00544246
0.1	0.1	-0.00624702
0.1	0.11	-0.00705514
0.1	0.12	-0.00786221
0.1	0.13	-0.00866456
0.1	0.14	-0.00945922
0.1	0.15	-0.0102438
0.1	0.16	-0.0110163
0.1	0.17	-0.011775
0.1	0.18	-0.0125186
0.1	0.19	-0.0132457
0.1	0.2	-0.0139551
0.1	0.21	-0.0146458
0.1	0.22	-0.0153166
0.1	0.23	-0.0159664
0.1	0.24	-0.0165943
0.1	0.25	-0.0171991
0.1	0.26	-0.0177798
0.1	0.27	-0.0183351
0.1	0.28	-0.0188641
0.1	0.29	-0.0193655
0.1	0.3	-0.0198382
0.1	0.31	-0.0202811
0.1	0.32	-0.0206931
0.1	0.33	-0.0210731
0.1	0.34	-0.02142
0.1	0.35	-0.0217329
0.1	0.36	-0.0220109
0.1	0.37	-0.0222531
0.1	0.38	-0.022459
0.1	0.39	-0.022628
0.1	0.4	-0.0227597
0.1	0.41	-0.0228538
0.1	0.42	-0.0229104
0.1	0.43	-0.0229297
0.1	0.44	-0.0229122
0.1	0.45	-0.0228585
0.1	0.46	-0.0227698
0.1	0.47	-0.0226472
0.1	0.48	-0.0224926
0.1	0.49	-0.022308
0.1	0.5	-0.0220957
0.1	0.51	-0.0218587
0.1	0.52	-0.0216002
0.1	0.53	-0.021324
0.1	0.54	-0.0210344
0.1	0.55	-0.0207363
0.1	0.56	-0.0204351
0.1	0.57	-0.0201368
0.1	0.58	-0.0198482
0.1	0.59	-0.0195767
0.1	0.6	-0.0193307
0.1	0.61	-0.0191191
0.1	0.62	-0.0189522
0.1	0.63	-0.0188409
0.1	0.64	-0.0187975
0.1	0.65	-0.0188353
0.1	0.66	-0.0189689
0.1	0.67	-0.0192146
0.1	0.68	-0.0195898
0.1	0.69	-0.020114
0.1	0.7	-0.0208081
0.1	0.71	-0.0216949
0.1	0.72	-0.022799
0.1	0.73	-0.0241466
0.1	0.74	-0.0257657
0.1	0.75	-0.0276853
0.1	0.76	-0.0299349
0.1	0.77	-0.0325438
0.1	0.78	-0.035539
0.1	0.79	-0.0389432
0.1	0.8	-0.0427715
0.1	0.81	-0.0470258
0.1	0.82	-0.0516879
0.1	0.83	-0.0567087
0.1	0.84	-0.0619926
0.1	0.85	-0.0673757
0.1	0.86	-0.0725939
0.1	0.87	-0.0772375
0.1	0.88	-0.0806864
0.1	0.89	-0.0820193
0.1	0.9	-0.0798874
0.1	0.91	-0.0723443
0.1	0.92	-0.0566282
0.1	0.93	-0.028905
0.1	0.94	0.0159811
0.1	0.95	0.0846295
0.1	0.96	0.18483
0.1	0.97	0.3245
0.1	0.98	0.509272
0.1	0.99	0.738411
0.1	1	1
0.11	0	0
0.11	0.01	-0.000366084
0.11	0.02	-0.000878123
0.11	0.03	-0.00150639
0.11	0.04	-0.00222581
0.11	0.05	-0.00301547
0.11	0.06	-0.00385805
0.11	0.07	-0.00473933
0.11	0.08	-0.00564766
0.11	0.09	-0.00657358
0.11	0.1	-0.00750945
0.11	0.11	-0.00844904
0.11	0.12	-0.00938737
0.11	0.13	-0.0103204
0.11	0.14	-0.0112447
0.11	0.15	-0.0121576
0.11	0.16	-0.0130569
0.11	0.17	-0.0139405
0.11	0.18	-0.0148068
0.11	0.19	-0.0156543
0.11	0.2	-0.0164814
0.11	0.21	-0.017287
0.11	0.22	-0.0180697
0.11	0.23	-0.0188282
0.11	0.24	-0.0195612
0.11	0.25	-0.0202676
0.11	0.26	-0.0209459
0.11	0.27	-0.021595
0.11	0.28	-0.0222133
0.11	0.29	-0.0227997
0.11	0.3	-0.0233528
0.11	0.31	-0.0238713
0.11	0.32	-0.0243537
0.11	0.33	-0.024799
0.11	0.34	-0.0252058
0.11	0.35	-0.0255731
0.11	0.36	-0.0258996
0.11	0.37	-0.0261846
0.11	0.38	-0.0264272
0.11	0.39	-0.0266268
0.11	0.4	-0.0267827
0.11	0.41	-0.0268949
0.11	0.42	-0.0269631
0.11	0.43	-0.0269877
0.11	0.44	-0.0269691
0.11	0.45	-0.026908
0.11	0.46	-0.0268056
0.11	0.47	-0.0266633
0.11	0.48	-0.026483
0.11	0.49	-0.026267
0.11	0.5	-0.0260179
0.11	0.51	-0.025739
0.11	0.52	-0.0254339
0.11	0.53	-0.0251068
0.11	0.54	-0.0247626
0.11	0.55	-0.0244067
0.11	0.56	-0.024045
0.11	0.57	-0.0236844
0.11	0.58	-0.0233324
0.11	0.59	-0.0229973
0.11	0.6	-0.0226881
0.11	0.61	-0.0224151
0.11	0.62	-0.0221892
0.11	0.63	-0.0220226
0.11	0.64	-0.0219285
0.11	0.65	-0.0219215
0.11	0.66	-0.0220174
0.11	0.67	-0.0222334
0.11	0.68	-0.0225882
0.11	0.69	-0.023102
0.11	0.7	-0.0237967
0.11	0.71	-0.0246956
0.11	0.72	-0.0258233
0.11	0.73	-0.027206
0.11	0.74	-0.0288703
0.11	0.75	-0.0308433
0.11	0.76	-0.0331514
0.11	0.77	-0.0358184
0.11	0.78	-0.0388642
0.11	0.79	-0.0423012
0.11	0.8	-0.0461299
0.11	0.81	-0.0503328
0.11	0.82	-0.0548657
0.11	0.83	-0.059645
0.11	0.84	-0.0645304
0.11	0.85	-0.0693006
0.11	0.86	-0.0736191
0.11	0.87	-0.0769876
0.11	0.88	-0.0786811
0.11	0.89	-0.0776609
0.11	0.9	-0.0724594
0.11	0.91	-0.0610339
0.11	0.92	-0.0405928
0.11	0.93	-0.00741392
0.11	0.94	0.0432903
0.11	0.95	0.117347
0.11	0.96	0.221229
0.11	0.97	0.360988
0.11	0.98	0.540186
0.11	0.99	0.756809
0.11	1	1
0.12	0	0
0.12	0.01	-0.000506822
0.12	0.02	-0.00115564
0.12	0.03	-0.00191868
0.12	0.04	-0.0027722
0.12	0.05	-0.00369604
0.12	0.06	-0.0046733
0.12	0.07	-0.00568985
0.12	0.08	-0.00673403
0.12	0.09	-0.00779619
0.12	0.1	-0.00886842
0.12	0.11	-0.00994422
0.12	0.12	-0.0110183
0.12	0.13	-0.0120862
0.12	0.14	-0.0131444
0.12	0.15	-0.0141898
0.12	0.16	-0.0152199
0.12	0.17	-0.0162324
0.12	0.18	-0.0172254
0.12	0.19	-0.0181971
0.12	0.2	-0.0191459
0.12	0.21	-0.0200702
0.12	0.22	-0.0209685
0.12	0.23	-0.0218394
0.12	0.24	-0.0226814
0.12	0.25	-0.0234929
0.12	0.26	-0.0242725
0.12	0.27	-0.0250187
0.12	0.28	-0.0257299
0.12	0.29	-0.0264046
0.12	0.3	-0.0270412
0.12	0.31	-0.0276383
0.12	0.32	-0.0281942
0.12	0.33	-0.0287075
0.12	0.34	-0.0291769
0.12	0.35	-0.0296009
0.12	0.36	-0.0299783
0.12	0.37	-0.0303081
0.12	0.38	-0.0305892
0.12	0.39	-0.0308209
0.12	0.4	-0.0310025
0.12	0.41	-0.0311337
0.12	0.42	-0.0312144
0.12	0.43	-0.0312446
0.12	0.44	-0.031225
0.12	0.45	-0.0311562
0.12	0.46	-0.0310394
0.12	0.47	-0.0308763
0.12	0.48	-0.0306689
0.12	0.49	-0.0304194
0.12	0.5	-0.0301311
0.12	0.51	-0.0298072
0.12	0.52	-0.0294519
0.12	0.53	-0.0290697
0.12	0.54	-0.028666
0.12	0.55	-0.0282466
0.12	0.56	-0.0278181
0.12	0.57	-0.0273881
0.12	0.58	-0.0269645
0.12	0.59	-0.0265566
0.12	0.6	-0.0261742
0.12	0.61	-0.0258283
0.12	0.62	-0.0255307
0.12	0.63	-0.0252946
0.12	0.64	-0.0251341
0.12	0.65	-0.0250646
0.12	0.66	-0.0251028
0.12	0.67	-0.0252668
0.12	0.68	-0.025576
0.12	0.69	-0.0260511
0.12	0.7	-0.0267143
0.12	0.71	-0.0275888
0.12	0.72	-0.0286989
0.12	0.73	-0.0300694
0.12	0.74	-0.0317253
0.12	0.75	-0.0336905
0.12	0.76	-0.0359868
0.12	0.77	-0.038632
0.12	0.78	-0.0416371
0.12	0.79	-0.0450027
0.12	0.8	-0.0487138
0.12	0.81	-0.0527322
0.12	0.82	-0.056987
0.12	0.83	-0.0613603
0.12	0.84	-0.0656687
0.12	0.85	-0.0696373
0.12	0.86	-0.0728647
0.12	0.87	-0.0747763
0.12	0.88	-0.074562
0.12	0.89	-0.0710956
0.12	0.9	-0.062833
0.12	0.91	-0.0476906
0.12	0.92	-0.0229138
0.12	0.93	0.0150413
0.12	0.94	0.0705547
0.12	0.95	0.148719
0.12	0.96	0.254878
0.12	0.97	0.393622
0.12	0.98	0.567058
0.12	0.99	0.772456
0.12	1	1
0.13	0	0
0.13	0.01	-0.000663574
0.13	0.02	-0.00146303
0.13	0.03	-0.00237277
0.13	0.04	-0.00337057
0.13	0.05	-0.00443729
0.13	0.06	-0.00555668
0.13	0.07	-0.00671497
0.13	0.08	-0.00790063
0.13	0.09	-0.00910401
0.13	0.1	-0.0103171
0.13	0.11	-0.0115332
0.13	0.12	-0.0127468
0.13	0.13	-0.0139533
0.13	0.14	-0.0151488
0.13	0.15	-0.01633
0.13	0.16	-0.0174941
0.13	0.17	-0.0186387
0.13	0.18	-0.0197615
0.13	0.19	-0.0208606
0.13	0.2	-0.0219341
0.13	0.21	-0.0229803
0.13	0.22	-0.0239974
0.13	0.23	-0.0249837
0.13	0.24	-0.0259376
0.13	0.25	-0.0268573
0.13	0.26	-0.0277411
0.13	0.27	-0.0285874
0.13	0.28	-0.0293943
0.13	0.29	-0.0301601
0.13	0.3	-0.030883
0.13	0.31	-0.0315612
0.13	0.32	-0.0321931
0.13	0.33	-0.032777
0.13	0.34	-0.0333111
0.13	0.35	-0.0337941
0.13	0.36	-0.0342244
0.13	0.37	-0.0346007
0.13	0.38	-0.034922
0.13	0.39	-0.0351872
0.13	0.4	-0.0353956
0.13	0.41	-0.0355468
0.13	0.42	-0.0356404
0.13	0.43	-0.0356767
0.13	0.44	-0.035656
0.13	0.45	-0.0355792
0.13	0.46	-0.0354474
0.13	0.47	-0.0352623
0.13	0.48	-0.035026
0.13	0.49	-0.0347412
0.13	0.5	-0.0344109
0.13	0.51	-0.0340389
0.13	0.52	-0.0336297
0.13	0.53	-0.033188
0.13	0.54	-0.0327196
0.13	0.55	-0.032231
0.13	0.56	-0.0317291
0.13	0.57	-0.031222
0.13	0.58	-0.0307185
0.13	0.59	-0.0302283
0.13	0.6	-0.0297619
0.13	0.61	-0.029331
0.13	0.62	-0.0289484
0.13	0.63	-0.0286277
0.13	0.64	-0.0283838
0.13	0.65	-0.028233
0.13	0.66	-0.0281925
0.13	0.67	-0.0282808
0.13	0.68	-0.0285178
0.13	0.69	-0.0289244
0.13	0.7	-0.0295225
0.13	0.71	-0.0303348
0.13	0.72	-0.0313846
0.13	0.73	-0.0326949
0.13	0.74	-0.0342879
0.13	0.75	-0.0361839
0.13	0.76	-0.0383992
0.13	0.77	-0.0409446
0.13	0.78	-0.0438214
0.13	0.79	-0.0470176
0.13	0.8	-0.0505021
0.13	0.81	-0.0542158
0.13	0.82	-0.0580615
0.13	0.83	-0.0618886
0.13	0.84	-0.0654734
0.13	0.85	-0.0684927
0.13	0.86	-0.070489
0.13	0.87	-0.0708246
0.13	0.88	-0.0686238
0.13	0.89	-0.0626997
0.13	0.9	-0.0514671
0.13	0.91	-0.032845
0.13	0.92	-0.00416153
0.13	0.93	0.0379112
0.13	0.94	0.0973407
0.13	0.95	0.178548
0.13	0.96	0.285929
0.13	0.97	0.422935
0.13	0.98	0.590645
0.13	0.99	0.785956
0.13	1	1
0.14	0	0
0.14	0.01	-0.000834865
0.14	0.02	-0.00179771