TITLE = v_vectors
VARIABLES = "x", "y", "V"
Zone T = "BLOCK1", i=101, j=101, F=POINT


0	0	0
0	0.01	0
0	0.02	0
0	0.03	0
0	0.04	0
0	0.05	0
0	0.06	0
0	0.07	0
0	0.08	0
0	0.09	0
0	0.1	0
0	0.11	0
0	0.12	0
0	0.13	0
0	0.14	0
0	0.15	0
0	0.16	0
0	0.17	0
0	0.18	0
0	0.19	0
0	0.2	0
0	0.21	0
0	0.22	0
0	0.23	0
0	0.24	0
0	0.25	0
0	0.26	0
0	0.27	0
0	0.28	0
0	0.29	0
0	0.3	0
0	0.31	0
0	0.32	0
0	0.33	0
0	0.34	0
0	0.35	0
0	0.36	0
0	0.37	0
0	0.38	0
0	0.39	0
0	0.4	0
0	0.41	0
0	0.42	0
0	0.43	0
0	0.44	0
0	0.45	0
0	0.46	0
0	0.47	0
0	0.48	0
0	0.49	0
0	0.5	0
0	0.51	0
0	0.52	0
0	0.53	0
0	0.54	0
0	0.55	0
0	0.56	0
0	0.57	0
0	0.58	0
0	0.59	0
0	0.6	0
0	0.61	0
0	0.62	0
0	0.63	0
0	0.64	0
0	0.65	0
0	0.66	0
0	0.67	0
0	0.68	0
0	0.69	0
0	0.7	0
0	0.71	0
0	0.72	0
0	0.73	0
0	0.74	0
0	0.75	0
0	0.76	0
0	0.77	0
0	0.78	0
0	0.79	0
0	0.8	0
0	0.81	0
0	0.82	0
0	0.83	0
0	0.84	0
0	0.85	0
0	0.86	0
0	0.87	0
0	0.88	0
0	0.89	0
0	0.9	0
0	0.91	0
0	0.92	0
0	0.93	0
0	0.94	0
0	0.95	0
0	0.96	0
0	0.97	0
0	0.98	0
0	0.99	0
0	1	0
0.01	0	0
0.01	0.01	-1.38196e-05
0.01	0.02	-3.93763e-05
0.01	0.03	-6.36553e-05
0.01	0.04	-7.75482e-05
0.01	0.05	-7.51728e-05
0.01	0.06	-5.29189e-05
0.01	0.07	-8.67788e-06
0.01	0.08	5.86917e-05
0.01	0.09	0.000149714
0.01	0.1	0.000264522
0.01	0.11	0.000402998
0.01	0.12	0.000564869
0.01	0.13	0.000749762
0.01	0.14	0.000957244
0.01	0.15	0.00118684
0.01	0.16	0.00143807
0.01	0.17	0.0017104
0.01	0.18	0.00200332
0.01	0.19	0.00231629
0.01	0.2	0.00264876
0.01	0.21	0.00300018
0.01	0.22	0.00336998
0.01	0.23	0.00375755
0.01	0.24	0.0041623
0.01	0.25	0.00458358
0.01	0.26	0.00502074
0.01	0.27	0.00547309
0.01	0.28	0.00593991
0.01	0.29	0.00642046
0.01	0.3	0.00691396
0.01	0.31	0.0074196
0.01	0.32	0.00793654
0.01	0.33	0.00846389
0.01	0.34	0.00900076
0.01	0.35	0.0095462
0.01	0.36	0.0100993
0.01	0.37	0.010659
0.01	0.38	0.0112243
0.01	0.39	0.0117942
0.01	0.4	0.0123676
0.01	0.41	0.0129436
0.01	0.42	0.013521
0.01	0.43	0.0140988
0.01	0.44	0.0146761
0.01	0.45	0.0152517
0.01	0.46	0.0158248
0.01	0.47	0.0163944
0.01	0.48	0.0169596
0.01	0.49	0.0175196
0.01	0.5	0.0180737
0.01	0.51	0.0186212
0.01	0.52	0.0191616
0.01	0.53	0.0196945
0.01	0.54	0.0202195
0.01	0.55	0.0207366
0.01	0.56	0.0212458
0.01	0.57	0.0217473
0.01	0.58	0.0222415
0.01	0.59	0.0227293
0.01	0.6	0.0232115
0.01	0.61	0.0236894
0.01	0.62	0.0241648
0.01	0.63	0.0246396
0.01	0.64	0.0251163
0.01	0.65	0.0255979
0.01	0.66	0.0260879
0.01	0.67	0.0265906
0.01	0.68	0.027111
0.01	0.69	0.0276549
0.01	0.7	0.0282292
0.01	0.71	0.0288419
0.01	0.72	0.0295024
0.01	0.73	0.0302217
0.01	0.74	0.0310128
0.01	0.75	0.0318908
0.01	0.76	0.0328736
0.01	0.77	0.0339821
0.01	0.78	0.0352412
0.01	0.79	0.0366804
0.01	0.8	0.0383347
0.01	0.81	0.040246
0.01	0.82	0.0424647
0.01	0.83	0.0450516
0.01	0.84	0.0480808
0.01	0.85	0.0516435
0.01	0.86	0.0558526
0.01	0.87	0.0608499
0.01	0.88	0.066816
0.01	0.89	0.073984
0.01	0.9	0.0826598
0.01	0.91	0.0932505
0.01	0.92	0.106304
0.01	0.93	0.122557
0.01	0.94	0.142961
0.01	0.95	0.168591
0.01	0.96	0.200062
0.01	0.97	0.235228
0.01	0.98	0.261404
0.01	0.99	0.231383
0.01	1	0
0.02	0	0
0.02	0.01	-1.94046e-05
0.02	0.02	-4.96348e-05
0.02	0.03	-7.23944e-05
0.02	0.04	-7.46648e-05
0.02	0.05	-4.73487e-05
0.02	0.06	1.56659e-05
0.02	0.07	0.000118303
0.02	0.08	0.000262934
0.02	0.09	0.000450855
0.02	0.1	0.000682623
0.02	0.11	0.000958295
0.02	0.12	0.00127759
0.02	0.13	0.00163999
0.02	0.14	0.00204483
0.02	0.15	0.00249135
0.02	0.16	0.00297869
0.02	0.17	0.00350596
0.02	0.18	0.00407222
0.02	0.19	0.00467649
0.02	0.2	0.00531777
0.02	0.21	0.00599501
0.02	0.22	0.00670713
0.02	0.23	0.00745303
0.02	0.24	0.00823155
0.02	0.25	0.00904148
0.02	0.26	0.00988158
0.02	0.27	0.0107505
0.02	0.28	0.011647
0.02	0.29	0.0125695
0.02	0.3	0.0135167
0.02	0.31	0.014487
0.02	0.32	0.0154787
0.02	0.33	0.0164903
0.02	0.34	0.0175199
0.02	0.35	0.018566
0.02	0.36	0.0196266
0.02	0.37	0.0206999
0.02	0.38	0.0217839
0.02	0.39	0.0228769
0.02	0.4	0.0239768
0.02	0.41	0.0250816
0.02	0.42	0.0261894
0.02	0.43	0.0272983
0.02	0.44	0.0284063
0.02	0.45	0.0295115
0.02	0.46	0.0306122
0.02	0.47	0.0317066
0.02	0.48	0.032793
0.02	0.49	0.03387
0.02	0.5	0.0349361
0.02	0.51	0.0359902
0.02	0.52	0.0370312
0.02	0.53	0.0380583
0.02	0.54	0.039071
0.02	0.55	0.0400689
0.02	0.56	0.0410523
0.02	0.57	0.0420215
0.02	0.58	0.0429773
0.02	0.59	0.043921
0.02	0.6	0.0448546
0.02	0.61	0.0457802
0.02	0.62	0.046701
0.02	0.63	0.0476208
0.02	0.64	0.048544
0.02	0.65	0.0494763
0.02	0.66	0.0504241
0.02	0.67	0.0513953
0.02	0.68	0.0523989
0.02	0.69	0.0534456
0.02	0.7	0.0545479
0.02	0.71	0.0557205
0.02	0.72	0.0569801
0.02	0.73	0.0583467
0.02	0.74	0.0598433
0.02	0.75	0.0614966
0.02	0.76	0.063338
0.02	0.77	0.0654041
0.02	0.78	0.0677377
0.02	0.79	0.0703889
0.02	0.8	0.0734166
0.02	0.81	0.0768902
0.02	0.82	0.0808917
0.02	0.83	0.085518
0.02	0.84	0.0908844
0.02	0.85	0.0971286
0.02	0.86	0.104415
0.02	0.87	0.112941
0.02	0.88	0.122945
0.02	0.89	0.134709
0.02	0.9	0.148568
0.02	0.91	0.164902
0.02	0.92	0.184105
0.02	0.93	0.20648
0.02	0.94	0.231962
0.02	0.95	0.2594
0.02	0.96	0.284875
0.02	0.97	0.298026
0.02	0.98	0.275559
0.02	0.99	0.17775
0.02	1	0
0.03	0	0
0.03	0.01	-1.70022e-05
0.03	0.02	-3.77135e-05
0.03	0.03	-4.18566e-05
0.03	0.04	-1.48644e-05
0.03	0.05	5.38335e-05
0.03	0.06	0.000171743
0.03	0.07	0.000344002
0.03	0.08	0.00057396
0.03	0.09	0.000863635
0.03	0.1	0.00121408
0.03	0.11	0.00162565
0.03	0.12	0.00209821
0.03	0.13	0.00263124
0.03	0.14	0.003224
0.03	0.15	0.00387555
0.03	0.16	0.00458481
0.03	0.17	0.00535061
0.03	0.18	0.00617169
0.03	0.19	0.00704672
0.03	0.2	0.00797431
0.03	0.21	0.00895302
0.03	0.22	0.00998135
0.03	0.23	0.0110577
0.03	0.24	0.0121805
0.03	0.25	0.013348
0.03	0.26	0.0145584
0.03	0.27	0.0158099
0.03	0.28	0.0171006
0.03	0.29	0.0184284
0.03	0.3	0.0197913
0.03	0.31	0.0211871
0.03	0.32	0.0226136
0.03	0.33	0.0240683
0.03	0.34	0.025549
0.03	0.35	0.027053
0.03	0.36	0.0285779
0.03	0.37	0.030121
0.03	0.38	0.0316796
0.03	0.39	0.0332511
0.03	0.4	0.0348327
0.03	0.41	0.0364216
0.03	0.42	0.0380151
0.03	0.43	0.0396104
0.03	0.44	0.0412049
0.03	0.45	0.0427958
0.03	0.46	0.0443807
0.03	0.47	0.045957
0.03	0.48	0.0475225
0.03	0.49	0.049075
0.03	0.5	0.0506126
0.03	0.51	0.0521334
0.03	0.52	0.0536362
0.03	0.53	0.0551196
0.03	0.54	0.0565829
0.03	0.55	0.0580257
0.03	0.56	0.059448
0.03	0.57	0.0608505
0.03	0.58	0.0622341
0.03	0.59	0.0636006
0.03	0.6	0.0649524
0.03	0.61	0.0662929
0.03	0.62	0.0676261
0.03	0.63	0.0689571
0.03	0.64	0.0702921
0.03	0.65	0.0716386
0.03	0.66	0.0730055
0.03	0.67	0.0744033
0.03	0.68	0.0758442
0.03	0.69	0.0773427
0.03	0.7	0.0789153
0.03	0.71	0.0805816
0.03	0.72	0.0823639
0.03	0.73	0.0842883
0.03	0.74	0.0863847
0.03	0.75	0.0886879
0.03	0.76	0.091238
0.03	0.77	0.0940812
0.03	0.78	0.097271
0.03	0.79	0.100869
0.03	0.8	0.104947
0.03	0.81	0.109586
0.03	0.82	0.114881
0.03	0.83	0.120941
0.03	0.84	0.12789
0.03	0.85	0.135869
0.03	0.86	0.145038
0.03	0.87	0.155573
0.03	0.88	0.167662
0.03	0.89	0.181492
0.03	0.9	0.19722
0.03	0.91	0.214915
0.03	0.92	0.234433
0.03	0.93	0.255168
0.03	0.94	0.275571
0.03	0.95	0.29224
0.03	0.96	0.29838
0.03	0.97	0.281772
0.03	0.98	0.224474
0.03	0.99	0.114411
0.03	1	0
0.04	0	0
0.04	0.01	-9.5814e-06
0.04	0.02	-1.10807e-05
0.04	0.03	1.51559e-05
0.04	0.04	8.37215e-05
0.04	0.05	0.000205538
0.04	0.06	0.000388665
0.04	0.07	0.000638881
0.04	0.08	0.000960159
0.04	0.09	0.00135506
0.04	0.1	0.00182507
0.04	0.11	0.00237084
0.04	0.12	0.00299243
0.04	0.13	0.00368943
0.04	0.14	0.00446108
0.04	0.15	0.00530636
0.04	0.16	0.00622408
0.04	0.17	0.00721286
0.04	0.18	0.0082712
0.04	0.19	0.00939752
0.04	0.2	0.0105901
0.04	0.21	0.0118472
0.04	0.22	0.0131669
0.04	0.23	0.0145473
0.04	0.24	0.0159863
0.04	0.25	0.0174819
0.04	0.26	0.0190317
0.04	0.27	0.0206335
0.04	0.28	0.0222848
0.04	0.29	0.0239831
0.04	0.3	0.0257258
0.04	0.31	0.0275102
0.04	0.32	0.0293334
0.04	0.33	0.0311925
0.04	0.34	0.0330845
0.04	0.35	0.0350062
0.04	0.36	0.0369544
0.04	0.37	0.0389259
0.04	0.38	0.0409173
0.04	0.39	0.0429252
0.04	0.4	0.0449462
0.04	0.41	0.0469768
0.04	0.42	0.0490136
0.04	0.43	0.051053
0.04	0.44	0.0530919
0.04	0.45	0.0551267
0.04	0.46	0.0571544
0.04	0.47	0.0591718
0.04	0.48	0.061176
0.04	0.49	0.0631642
0.04	0.5	0.065134
0.04	0.51	0.0670832
0.04	0.52	0.0690099
0.04	0.53	0.0709126
0.04	0.54	0.0727901
0.04	0.55	0.074642
0.04	0.56	0.0764681
0.04	0.57	0.078269
0.04	0.58	0.0800459
0.04	0.59	0.0818009
0.04	0.6	0.0835367
0.04	0.61	0.0852572
0.04	0.62	0.0869672
0.04	0.63	0.0886729
0.04	0.64	0.0903814
0.04	0.65	0.0921018
0.04	0.66	0.0938444
0.04	0.67	0.0956216
0.04	0.68	0.097448
0.04	0.69	0.0993402
0.04	0.7	0.101318
0.04	0.71	0.103403
0.04	0.72	0.105622
0.04	0.73	0.108004
0.04	0.74	0.110584
0.04	0.75	0.113399
0.04	0.76	0.116495
0.04	0.77	0.119922
0.04	0.78	0.123736
0.04	0.79	0.128003
0.04	0.8	0.132796
0.04	0.81	0.138196
0.04	0.82	0.144294
0.04	0.83	0.151189
0.04	0.84	0.158989
0.04	0.85	0.167807
0.04	0.86	0.177754
0.04	0.87	0.188932
0.04	0.88	0.201414
0.04	0.89	0.215211
0.04	0.9	0.230214
0.04	0.91	0.246094
0.04	0.92	0.262128
0.04	0.93	0.276906
0.04	0.94	0.287863
0.04	0.95	0.290601
0.04	0.96	0.278154
0.04	0.97	0.240998
0.04	0.98	0.170534
0.04	0.99	0.0727002
0.04	1	0
0.05	0	0
0.05	0.01	5.60044e-07
0.05	0.02	2.43681e-05
0.05	0.03	8.87444e-05
0.05	0.04	0.000207178
0.05	0.05	0.000390122
0.05	0.06	0.000645557
0.05	0.07	0.000979415
0.05	0.08	0.00139595
0.05	0.09	0.00189802
0.05	0.1	0.00248743
0.05	0.11	0.00316507
0.05	0.12	0.00393118
0.05	0.13	0.00478545
0.05	0.14	0.00572718
0.05	0.15	0.00675534
0.05	0.16	0.00786864
0.05	0.17	0.00906559
0.05	0.18	0.0103445
0.05	0.19	0.0117037
0.05	0.2	0.013141
0.05	0.21	0.0146546
0.05	0.22	0.0162423
0.05	0.23	0.0179017
0.05	0.24	0.0196304
0.05	0.25	0.0214261
0.05	0.26	0.0232861
0.05	0.27	0.0252076
0.05	0.28	0.0271878
0.05	0.29	0.0292237
0.05	0.3	0.0313123
0.05	0.31	0.0334504
0.05	0.32	0.0356346
0.05	0.33	0.0378614
0.05	0.34	0.0401273
0.05	0.35	0.0424287
0.05	0.36	0.0447618
0.05	0.37	0.0471226
0.05	0.38	0.0495073
0.05	0.39	0.051912
0.05	0.4	0.0543325
0.05	0.41	0.0567647
0.05	0.42	0.0592048
0.05	0.43	0.0616485
0.05	0.44	0.0640919
0.05	0.45	0.066531
0.05	0.46	0.0689622
0.05	0.47	0.0713816
0.05	0.48	0.0737859
0.05	0.49	0.0761718
0.05	0.5	0.0785363
0.05	0.51	0.0808767
0.05	0.52	0.0831908
0.05	0.53	0.0854766
0.05	0.54	0.0877327
0.05	0.55	0.0899584
0.05	0.56	0.0921533
0.05	0.57	0.0943179
0.05	0.58	0.0964535
0.05	0.59	0.098562
0.05	0.6	0.100647
0.05	0.61	0.102711
0.05	0.62	0.104761
0.05	0.63	0.106803
0.05	0.64	0.108845
0.05	0.65	0.110896
0.05	0.66	0.112968
0.05	0.67	0.115074
0.05	0.68	0.11723
0.05	0.69	0.119455
0.05	0.7	0.121767
0.05	0.71	0.124193
0.05	0.72	0.126758
0.05	0.73	0.129494
0.05	0.74	0.132436
0.05	0.75	0.135623
0.05	0.76	0.1391
0.05	0.77	0.142916
0.05	0.78	0.147127
0.05	0.79	0.151793
0.05	0.8	0.15698
0.05	0.81	0.162759
0.05	0.82	0.169205
0.05	0.83	0.176394
0.05	0.84	0.184397
0.05	0.85	0.193279
0.05	0.86	0.203081
0.05	0.87	0.213805
0.05	0.88	0.225385
0.05	0.89	0.237641
0.05	0.9	0.250202
0.05	0.91	0.262397
0.05	0.92	0.27308
0.05	0.93	0.28038
0.05	0.94	0.281384
0.05	0.95	0.271829
0.05	0.96	0.246138
0.05	0.97	0.198673
0.05	0.98	0.128131
0.05	0.99	0.0478071
0.05	1	0
0.06	0	0
0.06	0.01	1.19697e-05
0.06	0.02	6.44725e-05
0.06	0.03	0.000171618
0.06	0.04	0.000345025
0.06	0.05	0.000594071
0.06	0.06	0.000926165
0.06	0.07	0.001347
0.06	0.08	0.00186078
0.06	0.09	0.00247048
0.06	0.1	0.00317801
0.06	0.11	0.00398443
0.06	0.12	0.00489009
0.06	0.13	0.00589479
0.06	0.14	0.00699789
0.06	0.15	0.00819834
0.06	0.16	0.00949483
0.06	0.17	0.0108858
0.06	0.18	0.0123694
0.06	0.19	0.0139438
0.06	0.2	0.0156068
0.06	0.21	0.0173562
0.06	0.22	0.0191896
0.06	0.23	0.0211043
0.06	0.24	0.0230979
0.06	0.25	0.0251674
0.06	0.26	0.0273099
0.06	0.27	0.0295224
0.06	0.28	0.0318016
0.06	0.29	0.0341443
0.06	0.3	0.0365469
0.06	0.31	0.0390058
0.06	0.32	0.0415173
0.06	0.33	0.0440775
0.06	0.34	0.0466823
0.06	0.35	0.0493277
0.06	0.36	0.0520093
0.06	0.37	0.0547229
0.06	0.38	0.0574639
0.06	0.39	0.060228
0.06	0.4	0.0630104
0.06	0.41	0.0658068
0.06	0.42	0.0686123
0.06	0.43	0.0714226
0.06	0.44	0.0742329
0.06	0.45	0.077039
0.06	0.46	0.0798364
0.06	0.47	0.0826209
0.06	0.48	0.0853887
0.06	0.49	0.0881359
0.06	0.5	0.090859
0.06	0.51	0.0935551
0.06	0.52	0.0962212
0.06	0.53	0.0988552
0.06	0.54	0.101455
0.06	0.55	0.10402
0.06	0.56	0.10655
0.06	0.57	0.109044
0.06	0.58	0.111503
0.06	0.59	0.11393
0.06	0.6	0.116328
0.06	0.61	0.1187
0.06	0.62	0.121052
0.06	0.63	0.123391
0.06	0.64	0.125724
0.06	0.65	0.128062
0.06	0.66	0.130416
0.06	0.67	0.1328
0.06	0.68	0.135229
0.06	0.69	0.137722
0.06	0.7	0.1403
0.06	0.71	0.142986
0.06	0.72	0.145808
0.06	0.73	0.148794
0.06	0.74	0.15198
0.06	0.75	0.155403
0.06	0.76	0.159103
0.06	0.77	0.163126
0.06	0.78	0.167519
0.06	0.79	0.172336
0.06	0.8	0.177628
0.06	0.81	0.183449
0.06	0.82	0.189849
0.06	0.83	0.196873
0.06	0.84	0.204548
0.06	0.85	0.21288
0.06	0.86	0.221834
0.06	0.87	0.231311
0.06	0.88	0.241114
0.06	0.89	0.250896
0.06	0.9	0.260089
0.06	0.91	0.267794
0.06	0.92	0.272652
0.06	0.93	0.272673
0.06	0.94	0.265102
0.06	0.95	0.246434
0.06	0.96	0.212925
0.06	0.97	0.162272
0.06	0.98	0.097432
0.06	0.99	0.0329999
0.06	1	0
0.07	0	0
0.07	0.01	2.37686e-05
0.07	0.02	0.000106425
0.07	0.03	0.000258571
0.07	0.04	0.000489522
0.07	0.05	0.000807165
0.07	0.06	0.00121797
0.07	0.07	0.00172706
0.07	0.08	0.00233836
0.07	0.09	0.0030547
0.07	0.1	0.00387798
0.07	0.11	0.00480929
0.07	0.12	0.00584904
0.07	0.13	0.00699708
0.07	0.14	0.00825278
0.07	0.15	0.00961514
0.07	0.16	0.0110828
0.07	0.17	0.0126542
0.07	0.18	0.0143274
0.07	0.19	0.0161003
0.07	0.2	0.0179708
0.07	0.21	0.0199364
0.07	0.22	0.0219945
0.07	0.23	0.0241423
0.07	0.24	0.026377
0.07	0.25	0.0286956
0.07	0.26	0.0310948
0.07	0.27	0.0335713
0.07	0.28	0.0361215
0.07	0.29	0.0387419
0.07	0.3	0.0414286
0.07	0.31	0.0441777
0.07	0.32	0.046985
0.07	0.33	0.0498462
0.07	0.34	0.0527571
0.07	0.35	0.0557131
0.07	0.36	0.0587094
0.07	0.37	0.0617413
0.07	0.38	0.0648041
0.07	0.39	0.0678926
0.07	0.4	0.0710019
0.07	0.41	0.074127
0.07	0.42	0.0772627
0.07	0.43	0.0804041
0.07	0.44	0.0835461
0.07	0.45	0.0866837
0.07	0.46	0.0898123
0.07	0.47	0.092927
0.07	0.48	0.0960234
0.07	0.49	0.0990974
0.07	0.5	0.102145
0.07	0.51	0.105163
0.07	0.52	0.108147
0.07	0.53	0.111095
0.07	0.54	0.114006
0.07	0.55	0.116877
0.07	0.56	0.119707
0.07	0.57	0.122497
0.07	0.58	0.125246
0.07	0.59	0.127957
0.07	0.6	0.130633
0.07	0.61	0.133277
0.07	0.62	0.135893
0.07	0.63	0.138489
0.07	0.64	0.141073
0.07	0.65	0.143653
0.07	0.66	0.146241
0.07	0.67	0.148851
0.07	0.68	0.151497
0.07	0.69	0.154197
0.07	0.7	0.156971
0.07	0.71	0.15984
0.07	0.72	0.162831
0.07	0.73	0.165971
0.07	0.74	0.16929
0.07	0.75	0.172821
0.07	0.76	0.176599
0.07	0.77	0.180663
0.07	0.78	0.185051
0.07	0.79	0.189802
0.07	0.8	0.194951
0.07	0.81	0.200531
0.07	0.82	0.206565
0.07	0.83	0.213061
0.07	0.84	0.220003
0.07	0.85	0.227338
0.07	0.86	0.234959
0.07	0.87	0.242681
0.07	0.88	0.250202
0.07	0.89	0.257056
0.07	0.9	0.262552
0.07	0.91	0.26569
0.07	0.92	0.265077
0.07	0.93	0.258848
0.07	0.94	0.244682
0.07	0.95	0.220025
0.07	0.96	0.182805
0.07	0.97	0.133033
0.07	0.98	0.0756367
0.07	0.99	0.0239166
0.07	1	0
0.08	0	0
0.08	0.01	3.54268e-05
0.08	0.02	0.000148369
0.08	0.03	0.000345965
0.08	0.04	0.000635056
0.08	0.05	0.00102179
0.08	0.06	0.00151144
0.08	0.07	0.00210834
0.08	0.08	0.00281589
0.08	0.09	0.00363662
0.08	0.1	0.00457225
0.08	0.11	0.00562379
0.08	0.12	0.00679164
0.08	0.13	0.00807562
0.08	0.14	0.00947513
0.08	0.15	0.0109891
0.08	0.16	0.0126163
0.08	0.17	0.0143549
0.08	0.18	0.0162031
0.08	0.19	0.0181588
0.08	0.2	0.0202195
0.08	0.21	0.0223827
0.08	0.22	0.0246457
0.08	0.23	0.0270057
0.08	0.24	0.0294594
0.08	0.25	0.0320038
0.08	0.26	0.0346353
0.08	0.27	0.0373505
0.08	0.28	0.0401455
0.08	0.29	0.0430164
0.08	0.3	0.0459592
0.08	0.31	0.0489697
0.08	0.32	0.0520434
0.08	0.33	0.0551757
0.08	0.34	0.058362
0.08	0.35	0.0615973
0.08	0.36	0.0648767
0.08	0.37	0.0681951
0.08	0.38	0.0715471
0.08	0.39	0.0749275
0.08	0.4	0.0783308
0.08	0.41	0.0817516
0.08	0.42	0.0851845
0.08	0.43	0.0886238
0.08	0.44	0.0920643
0.08	0.45	0.0955005
0.08	0.46	0.0989271
0.08	0.47	0.102339
0.08	0.48	0.105731
0.08	0.49	0.109099
0.08	0.5	0.112439
0.08	0.51	0.115746
0.08	0.52	0.119016
0.08	0.53	0.122247
0.08	0.54	0.125435
0.08	0.55	0.12858
0.08	0.56	0.131678
0.08	0.57	0.134731
0.08	0.58	0.137737
0.08	0.59	0.140699
0.08	0.6	0.143618
0.08	0.61	0.146497
0.08	0.62	0.149342
0.08	0.63	0.152157
0.08	0.64	0.15495
0.08	0.65	0.157729
0.08	0.66	0.160506
0.08	0.67	0.163292
0.08	0.68	0.1661
0.08	0.69	0.168948
0.08	0.7	0.171852
0.08	0.71	0.174833
0.08	0.72	0.177912
0.08	0.73	0.181115
0.08	0.74	0.184465
0.08	0.75	0.187992
0.08	0.76	0.191722
0.08	0.77	0.195684
0.08	0.78	0.199905
0.08	0.79	0.204409
0.08	0.8	0.209215
0.08	0.81	0.214331
0.08	0.82	0.219753
0.08	0.83	0.225455
0.08	0.84	0.231378
0.08	0.85	0.23742
0.08	0.86	0.243416
0.08	0.87	0.249113
0.08	0.88	0.254137
0.08	0.89	0.257955
0.08	0.9	0.259825
0.08	0.91	0.258746
0.08	0.92	0.253414
0.08	0.93	0.242226
0.08	0.94	0.223389
0.08	0.95	0.19525
0.08	0.96	0.157025
0.08	0.97	0.110128
0.08	0.98	0.0600706
0.08	0.99	0.0180978
0.08	1	0
0.09	0	0
0.09	0.01	4.66247e-05
0.09	0.02	0.000189088
0.09	0.03	0.000431297
0.09	0.04	0.000777624
0.09	0.05	0.00123237
0.09	0.06	0.00179946
0.09	0.07	0.00248226
0.09	0.08	0.00328349
0.09	0.09	0.00420523
0.09	0.1	0.00524889
0.09	0.11	0.00641531
0.09	0.12	0.00770475
0.09	0.13	0.009117
0.09	0.14	0.0106514
0.09	0.15	0.0123069
0.09	0.16	0.0140821
0.09	0.17	0.0159753
0.09	0.18	0.0179845
0.09	0.19	0.0201077
0.09	0.2	0.0223422
0.09	0.21	0.0246856
0.09	0.22	0.0271349
0.09	0.23	0.0296871
0.09	0.24	0.0323391
0.09	0.25	0.0350874
0.09	0.26	0.0379285
0.09	0.27	0.0408586
0.09	0.28	0.0438738
0.09	0.29	0.04697
0.09	0.3	0.0501429
0.09	0.31	0.053388
0.09	0.32	0.0567006
0.09	0.33	0.060076
0.09	0.34	0.0635091
0.09	0.35	0.0669948
0.09	0.36	0.0705279
0.09	0.37	0.0741028
0.09	0.38	0.077714
0.09	0.39	0.0813559
0.09	0.4	0.0850226
0.09	0.41	0.0887085
0.09	0.42	0.0924076
0.09	0.43	0.096114
0.09	0.44	0.099822
0.09	0.45	0.103526
0.09	0.46	0.107219
0.09	0.47	0.110898
0.09	0.48	0.114555
0.09	0.49	0.118187
0.09	0.5	0.121787
0.09	0.51	0.125352
0.09	0.52	0.128878
0.09	0.53	0.13236
0.09	0.54	0.135796
0.09	0.55	0.139183
0.09	0.56	0.142519
0.09	0.57	0.145803
0.09	0.58	0.149035
0.09	0.59	0.152215
0.09	0.6	0.155344
0.09	0.61	0.158424
0.09	0.62	0.161461
0.09	0.63	0.164458
0.09	0.64	0.167421
0.09	0.65	0.170359
0.09	0.66	0.17328
0.09	0.67	0.176194
0.09	0.68	0.179114
0.09	0.69	0.182054
0.09	0.7	0.185028
0.09	0.71	0.188054
0.09	0.72	0.19115
0.09	0.73	0.194335
0.09	0.74	0.197629
0.09	0.75	0.201053
0.09	0.76	0.204627
0.09	0.77	0.208368
0.09	0.78	0.212291
0.09	0.79	0.216406
0.09	0.8	0.220712
0.09	0.81	0.225199
0.09	0.82	0.229834
0.09	0.83	0.234562
0.09	0.84	0.239289
0.09	0.85	0.243872
0.09	0.86	0.248104
0.09	0.87	0.251686
0.09	0.88	0.254207
0.09	0.89	0.25511
0.09	0.9	0.253659
0.09	0.91	0.248916
0.09	0.92	0.239742
0.09	0.93	0.224844
0.09	0.94	0.202943
0.09	0.95	0.173131
0.09	0.96	0.135526
0.09	0.97	0.0922794
0.09	0.98	0.0487665
0.09	0.99	0.0141975
0.09	1	0
0.1	0	0
0.1	0.01	5.7172e-05
0.1	0.02	0.000227803
0.1	0.03	0.000512885
0.1	0.04	0.000914434
0.1	0.05	0.00143491
0.1	0.06	0.0020768
0.1	0.07	0.00284242
0.1	0.08	0.00373369
0.1	0.09	0.0047521
0.1	0.1	0.00589869
0.1	0.11	0.00717399
0.1	0.12	0.00857809
0.1	0.13	0.0101106
0.1	0.14	0.0117709
0.1	0.15	0.0135577
0.1	0.16	0.0154698
0.1	0.17	0.0175052
0.1	0.18	0.0196621
0.1	0.19	0.0219382
0.1	0.2	0.024331
0.1	0.21	0.0268379
0.1	0.22	0.0294558
0.1	0.23	0.0321817
0.1	0.24	0.0350123
0.1	0.25	0.0379442
0.1	0.26	0.0409735
0.1	0.27	0.0440965
0.1	0.28	0.047309
0.1	0.29	0.0506067
0.1	0.3	0.0539853
0.1	0.31	0.0574401
0.1	0.32	0.0609662
0.1	0.33	0.0645586
0.1	0.34	0.0682121
0.1	0.35	0.0719212
0.1	0.36	0.0756806
0.1	0.37	0.0794844
0.1	0.38	0.0833269
0.1	0.39	0.0872021
0.1	0.4	0.0911039
0.1	0.41	0.0950262
0.1	0.42	0.0989628
0.1	0.43	0.102908
0.1	0.44	0.106854
0.1	0.45	0.110797
0.1	0.46	0.114729
0.1	0.47	0.118644
0.1	0.48	0.122538
0.1	0.49	0.126404
0.1	0.5	0.130237
0.1	0.51	0.134031
0.1	0.52	0.137783
0.1	0.53	0.141488
0.1	0.54	0.145143
0.1	0.55	0.148743
0.1	0.56	0.152287
0.1	0.57	0.155773
0.1	0.58	0.159199
0.1	0.59	0.162565
0.1	0.6	0.165873
0.1	0.61	0.169122
0.1	0.62	0.172317
0.1	0.63	0.175461
0.1	0.64	0.178558
0.1	0.65	0.181615
0.1	0.66	0.184638
0.1	0.67	0.187638
0.1	0.68	0.190623
0.1	0.69	0.193604
0.1	0.7	0.196595
0.1	0.71	0.199607
0.1	0.72	0.202655
0.1	0.73	0.205753
0.1	0.74	0.208916
0.1	0.75	0.212156
0.1	0.76	0.215484
0.1	0.77	0.218909
0.1	0.78	0.222434
0.1	0.79	0.226052
0.1	0.8	0.229748
0.1	0.81	0.233491
0.1	0.82	0.237227
0.1	0.83	0.240875
0.1	0.84	0.244314
0.1	0.85	0.247374
0.1	0.86	0.249818
0.1	0.87	0.251327
0.1	0.88	0.251475
0.1	0.89	0.249714
0.1	0.9	0.245356
0.1	0.91	0.237568
0.1	0.92	0.225399
0.1	0.93	0.207866
0.1	0.94	0.184139
0.1	0.95	0.153879
0.1	0.96	0.117783
0.1	0.97	0.0783107
0.1	0.98	0.0403873
0.1	0.99	0.0114715
0.1	1	0
0.11	0	0
0.11	0.01	6.69606e-05
0.11	0.02	0.00026403
0.11	0.03	0.000589627
0.11	0.04	0.00104359
0.11	0.05	0.00162661
0.11	0.06	0.00233974
0.11	0.07	0.00318416
0.11	0.08	0.00416095
0.11	0.09	0.00527095
0.11	0.1	0.00651468
0.11	0.11	0.00789235
0.11	0.12	0.00940377
0.11	0.13	0.0110484
0.11	0.14	0.0128254
0.11	0.15	0.0147336
0.11	0.16	0.0167714
0.11	0.17	0.0189372
0.11	0.18	0.0212288
0.11	0.19	0.0236439
0.11	0.2	0.0261802
0.11	0.21	0.0288347
0.11	0.22	0.0316046
0.11	0.23	0.0344866
0.11	0.24	0.0374775
0.11	0.25	0.0405737
0.11	0.26	0.0437713
0.11	0.27	0.0470664
0.11	0.28	0.0504548
0.11	0.29	0.0539322
0.11	0.3	0.0574939
0.11	0.31	0.0611352
0.11	0.32	0.0648511
0.11	0.33	0.0686363
0.11	0.34	0.0724855
0.11	0.35	0.0763932
0.11	0.36	0.0803536
0.11	0.37	0.0843607
0.11	0.38	0.0884086
0.11	0.39	0.0924909
0.11	0.4	0.0966015
0.11	0.41	0.100734
0.11	0.42	0.104881
0.11	0.43	0.109038
0.11	0.44	0.113196
0.11	0.45	0.11735
0.11	0.46	0.121494
0.11	0.47	0.12562
0.11	0.48	0.129723
0.11	0.49	0.133796
0.11	0.5	0.137834
0.11	0.51	0.141832
0.11	0.52	0.145783
0.11	0.53	0.149683
0.11	0.54	0.153529
0.11	0.55	0.157315
0.11	0.56	0.161039
0.11	0.57	0.164698
0.11	0.58	0.16829
0.11	0.59	0.171815
0.11	0.6	0.17527
0.11	0.61	0.178658
0.11	0.62	0.181979
0.11	0.63	0.185237
0.11	0.64	0.188433
0.11	0.65	0.191573
0.11	0.66	0.194662
0.11	0.67	0.197707
0.11	0.68	0.200715
0.11	0.69	0.203693
0.11	0.7	0.206652
0.11	0.71	0.209599
0.11	0.72	0.212546
0.11	0.73	0.215499
0.11	0.74	0.218468
0.11	0.75	0.221459
0.11	0.76	0.224474
0.11	0.77	0.227511
0.11	0.78	0.230562
0.11	0.79	0.233609
0.11	0.8	0.236621
0.11	0.81	0.239551
0.11	0.82	0.242328
0.11	0.83	0.24485
0.11	0.84	0.246979
0.11	0.85	0.248526
0.11	0.86	0.249241
0.11	0.87	0.248797
0.11	0.88	0.246779
0.11	0.89	0.242673
0.11	0.9	0.235856
0.11	0.91	0.225618
0.11	0.92	0.211202
0.11	0.93	0.191904
0.11	0.94	0.167256
0.11	0.95	0.13733
0.11	0.96	0.103167
0.11	0.97	0.0672814
0.11	0.98	0.0340446
0.11	0.99	0.00949574
0.11	1	0
0.12	0	0
0.12	0.01	7.59359e-05
0.12	0.02	0.00029749
0.12	0.03	0.000660843
0.12	0.04	0.00116388
0.12	0.05	0.0018056
0.12	0.06	0.0025857
0.12	0.07	0.00350422
0.12	0.08	0.00456134
0.12	0.09	0.0057572
0.12	0.1	0.00709177
0.12	0.11	0.00856485
0.12	0.12	0.0101759
0.12	0.13	0.0119243
0.12	0.14	0.0138089
0.12	0.15	0.0158284
0.12	0.16	0.0179812
0.12	0.17	0.0202656
0.12	0.18	0.0226794
0.12	0.19	0.0252203
0.12	0.2	0.0278857
0.12	0.21	0.030673
0.12	0.22	0.033579
0.12	0.23	0.0366007
0.12	0.24	0.0397345
0.12	0.25	0.042977
0.12	0.26	0.0463242
0.12	0.27	0.0497722
0.12	0.28	0.0533167
0.12	0.29	0.0569531
0.12	0.3	0.060677
0.12	0.31	0.0644833
0.12	0.32	0.0683669
0.12	0.33	0.0723226
0.12	0.34	0.0763449
0.12	0.35	0.0804279
0.12	0.36	0.0845659
0.12	0.37	0.0887526
0.12	0.38	0.092982
0.12	0.39	0.0972474
0.12	0.4	0.101542
0.12	0.41	0.10586
0.12	0.42	0.110194
0.12	0.43	0.114538
0.12	0.44	0.118883
0.12	0.45	0.123224
0.12	0.46	0.127554
0.12	0.47	0.131866
0.12	0.48	0.136153
0.12	0.49	0.140409
0.12	0.5	0.144628
0.12	0.51	0.148802
0.12	0.52	0.152927
0.12	0.53	0.156998
0.12	0.54	0.161009
0.12	0.55	0.164955
0.12	0.56	0.168833
0.12	0.57	0.172639
0.12	0.58	0.17637
0.12	0.59	0.180025
0.12	0.6	0.183601
0.12	0.61	0.187099
0.12	0.62	0.190517
0.12	0.63	0.193858
0.12	0.64	0.197123
0.12	0.65	0.200313
0.12	0.66	0.203434
0.12	0.67	0.206488
0.12	0.68	0.209481
0.12	0.69	0.212418
0.12	0.7	0.215304
0.12	0.71	0.218144
0.12	0.72	0.220943
0.12	0.73	0.223705
0.12	0.74	0.226432
0.12	0.75	0.229123
0.12	0.76	0.231773
0.12	0.77	0.234371
0.12	0.78	0.236899
0.12	0.79	0.239328
0.12	0.8	0.241615
0.12	0.81	0.2437
0.12	0.82	0.245498
0.12	0.83	0.246896
0.12	0.84	0.247742
0.12	0.85	0.247839
0.12	0.86	0.246934
0.12	0.87	0.244709
0.12	0.88	0.240771
0.12	0.89	0.234651
0.12	0.9	0.22581
0.12	0.91	0.213659
0.12	0.92	0.197621
0.12	0.93	0.177228
0.12	0.94	0.152296
0.12	0.95	0.123177
0.12	0.96	0.0910946
0.12	0.97	0.0584781
0.12	0.98	0.0291471
0.12	0.99	0.00801891
0.12	1	0
0.13	0	0
0.13	0.01	8.40788e-05
0.13	0.02	0.000328042
0.13	0.03	0.000726156
0.13	0.04	0.00127456
0.13	0.05	0.00197072
0.13	0.06	0.00281303
0.13	0.07	0.00380042
0.13	0.08	0.00493217
0.13	0.09	0.0062077
0.13	0.1	0.00762639
0.13	0.11	0.00918759
0.13	0.12	0.0108905
0.13	0.13	0.012734
0.13	0.14	0.0147169
0.13	0.15	0.0168379
0.13	0.16	0.0190951
0.13	0.17	0.0214867
0.13	0.18	0.0240106
0.13	0.19	0.0266644
0.13	0.2	0.0294455
0.13	0.21	0.0323513
0.13	0.22	0.0353785
0.13	0.23	0.0385242
0.13	0.24	0.0417847
0.13	0.25	0.0451566
0.13	0.26	0.048636
0.13	0.27	0.0522188
0.13	0.28	0.0559007
0.13	0.29	0.0596772
0.13	0.3	0.0635436
0.13	0.31	0.0674949
0.13	0.32	0.071526
0.13	0.33	0.0756315
0.13	0.34	0.0798057
0.13	0.35	0.0840428
0.13	0.36	0.0883367
0.13	0.37	0.0926812
0.13	0.38	0.0970699
0.13	0.39	0.101496
0.13	0.4	0.105953
0.13	0.41	0.110434
0.13	0.42	0.114932
0.13	0.43	0.119439
0.13	0.44	0.123949
0.13	0.45	0.128455
0.13	0.46	0.132948
0.13	0.47	0.137423
0.13	0.48	0.141871
0.13	0.49	0.146286
0.13	0.5	0.150661
0.13	0.51	0.15499
0.13	0.52	0.159266
0.13	0.53	0.163483
0.13	0.54	0.167635
0.13	0.55	0.171718
0.13	0.56	0.175726
0.13	0.57	0.179654
0.13	0.58	0.1835
0.13	0.59	0.18726
0.13	0.6	0.190932
0.13	0.61	0.194512
0.13	0.62	0.198001
0.13	0.63	0.201398
0.13	0.64	0.204702
0.13	0.65	0.207915
0.13	0.66	0.211037
0.13	0.67	0.21407
0.13	0.68	0.217016
0.13	0.69	0.219878
0.13	0.7	0.222656
0.13	0.71	0.225354
0.13	0.72	0.22797
0.13	0.73	0.230504
0.13	0.74	0.232951
0.13	0.75	0.235306
0.13	0.76	0.237556
0.13	0.77	0.239682
0.13	0.78	0.241658
0.13	0.79	0.243446
0.13	0.8	0.244994
0.13	0.81	0.246231
0.13	0.82	0.247063
0.13	0.83	0.24737
0.13	0.84	0.246994
0.13	0.85	0.245738
0.13	0.86	0.243354
0.13	0.87	0.23954
0.13	0.88	0.233937
0.13	0.89	0.226129
0.13	0.9	0.215657
0.13	0.91	0.202054
0.13	0.92	0.184897
0.13	0.93	0.163913
0.13	0.94	0.13913
0.13	0.95	0.111084
0.13	0.96	0.0810717
0.13	0.97	0.0513703
0.13	0.98	0.0252961
0.13	0.99	0.00688611
0.13	1	0
0.14	0	0
0.14	0.01	9.13937e-05
0.14	0.02	0.000355648
0.14	0.03	0.000785399
0.14	0.04	0.00137526
0.14	0.05	0.00212132
0.14	0.06	0.00302074
0.14	0.07	0.00407143
0.14	0.08	0.00527176
0.14	0.09	0.00662042
0.14	0.1	0.00811623
0.14	0.11	0.00975803
0.14	0.12	0.0115446
0.14	0.13	0.0134747
0.14	0.14	0.0155468
0.14	0.15	0.0177593
0.14	0.16	0.0201105
0.14	0.17	0.0225983
0.14	0.18	0.0252206
0.14	0.19	0.0279749
0.14	0.2	0.0308588
0.14	0.21	0.0338693
0.14	0.22	0.0370037
0.14	0.23	0.0402585
0.14	0.24	0.0436304
0.14	0.25	0.0471159
0.14	0.26	0.050711
0.14	0.27	0.0544117
0.14	0.28	0.0582137
0.14	0.29	0.0621125
0.14	0.3	0.0661033
0.14	0.31	0.0701811
0.14	0.32	0.0743408
0.14	0.33	0.0785768
0.14	0.34	0.0828835
0.14	0.35	0.0872549
0.14	0.36	0.0916849
0.14	0.37	0.0961671
0.14	0.38	0.100695
0.14	0.39	0.105261
0.14	0.4	0.10986
0.14	0.41	0.114483
0.14	0.42	0.119124
0.14	0.43	0.123775
0.14	0.44	0.128428
0.14	0.45	0.133076
0.14	0.46	0.137712
0.14	0.47	0.142328
0.14	0.48	0.146916
0.14	0.49	0.151469
0.14	0.5	0.15598
0.14	0.51	0.160442
0.14	0.52	0.164847
0.14	0.53	0.169188
0.14	0.54	0.173461
0.14	0.55	0.177657
0.14	0.56	0.181773
0.14	0.57	0.185802
0.14	0.58	0.189739
0.14	0.59	0.193582
0.14	0.6	0.197325
0.14	0.61	0.200965
0.14	0.62	0.204501
0.14	0.63	0.207929
0.14	0.64	0.211248
0.14	0.65	0.214456
0.14	0.66	0.217553
0.14	0.67	0.220538
0.14	0.68	0.223411
0.14	0.69	0.22617
0.14	0.7	0.228814
0.14	0.71	0.23134
0.14	0.72	0.233745
0.14	0.73	0.236024
0.14	0.74	0.238167
0.14	0.75	0.240161
0.14	0.76	0.241989
0.14	0.77	0.243626
0.14	0.78	0.245039
0.14	0.79	0.246182
0.14	0.8	0.246996
0.14	0.81	0.247403
0.14	0.82	0.247307
0.14	0.83	0.24658
0.14	0.84	0.245067
0.14	0.85	0.242573
0.14	0.86	0.238864
0.14	0.87	0.23366
0.14	0.88	0.226638
0.14	0.89	0.217439
0.14	0.9	0.205684
0.14	0.91	0.19101
0.14	0.92	0.17313
0.14	0.93	0.151925
0.14	0.94	0.127575
0.14	0.95	0.100731
0.14	0.96	0.0726955
0.14	0.97	0.0455657
0.14	0.98	0.0222177
0.14	0.99	0.00599796
0.14	1	0
0.15	0	0
0.15	0.01	9.79008e-05
0.15	0.02	0.000380332
0.15	0.03	0.000838563
0.15	0.04	0.00146588
0.15	0.05	0.00225714
0.15	0.06	0.0032084